V -t * -v 1.0a5 -a 0
A -t * -n 1 -p 0 -o 0x7fffffff -c 30 -a 1
A -t * -h 1 -m 1073741823 -s 0
n -t * -a 0 -s 0 -S UP -v circle -c black -i black
n -t * -a 1 -s 1 -S UP -v circle -c black -i black
n -t * -a 2 -s 2 -S UP -v circle -c black -i black
l -t * -s 0 -d 1 -S UP -r 1000000 -D 0.001 -c black
l -t * -s 0 -d 2 -S UP -r 1000000 -D 0.001 -c black
+ -t 2 -s 0 -d 1 -p cbr -e 500 -c 0 -i 0 -a 0 -x {0.0 1.0 0 ------- null}
- -t 2 -s 0 -d 1 -p cbr -e 500 -c 0 -i 0 -a 0 -x {0.0 1.0 0 ------- null}
h -t 2 -s 0 -d 1 -p cbr -e 500 -c 0 -i 0 -a 0 -x {0.0 1.0 -1 ------- null}
+ -t 2.001 -s 0 -d 1 -p cbr -e 500 -c 0 -i 1 -a 0 -x {0.0 1.0 1 ------- null}
+ -t 2.002 -s 0 -d 1 -p cbr -e 500 -c 0 -i 2 -a 0 -x {0.0 1.0 2 ------- null}
+ -t 2.003 -s 0 -d 1 -p cbr -e 500 -c 0 -i 3 -a 0 -x {0.0 1.0 3 ------- null}
+ -t 2.004 -s 0 -d 1 -p cbr -e 500 -c 0 -i 4 -a 0 -x {0.0 1.0 4 ------- null}
- -t 2.004 -s 0 -d 1 -p cbr -e 500 -c 0 -i 1 -a 0 -x {0.0 1.0 1 ------- null}
h -t 2.004 -s 0 -d 1 -p cbr -e 500 -c 0 -i 1 -a 0 -x {0.0 1.0 -1 ------- null}
+ -t 2.005 -s 0 -d 1 -p cbr -e 500 -c 0 -i 5 -a 0 -x {0.0 1.0 5 ------- null}
r -t 2.005 -s 0 -d 1 -p cbr -e 500 -c 0 -i 0 -a 0 -x {0.0 1.0 0 ------- null}
+ -t 2.006 -s 0 -d 1 -p cbr -e 500 -c 0 -i 6 -a 0 -x {0.0 1.0 6 ------- null}
+ -t 2.007 -s 0 -d 1 -p cbr -e 500 -c 0 -i 7 -a 0 -x {0.0 1.0 7 ------- null}
+ -t 2.008 -s 0 -d 1 -p cbr -e 500 -c 0 -i 8 -a 0 -x {0.0 1.0 8 ------- null}
- -t 2.008 -s 0 -d 1 -p cbr -e 500 -c 0 -i 2 -a 0 -x {0.0 1.0 2 ------- null}
h -t 2.008 -s 0 -d 1 -p cbr -e 500 -c 0 -i 2 -a 0 -x {0.0 1.0 -1 ------- null}
+ -t 2.009 -s 0 -d 1 -p cbr -e 500 -c 0 -i 9 -a 0 -x {0.0 1.0 9 ------- null}
r -t 2.009 -s 0 -d 1 -p cbr -e 500 -c 0 -i 1 -a 0 -x {0.0 1.0 1 ------- null}
+ -t 2.01 -s 0 -d 1 -p cbr -e 500 -c 0 -i 10 -a 0 -x {0.0 1.0 10 ------- null}
+ -t 2.011 -s 0 -d 1 -p cbr -e 500 -c 0 -i 11 -a 0 -x {0.0 1.0 11 ------- null}
+ -t 2.012 -s 0 -d 1 -p cbr -e 500 -c 0 -i 12 -a 0 -x {0.0 1.0 12 ------- null}
- -t 2.012 -s 0 -d 1 -p cbr -e 500 -c 0 -i 3 -a 0 -x {0.0 1.0 3 ------- null}
h -t 2.012 -s 0 -d 1 -p cbr -e 500 -c 0 -i 3 -a 0 -x {0.0 1.0 -1 ------- null}
+ -t 2.013 -s 0 -d 1 -p cbr -e 500 -c 0 -i 13 -a 0 -x {0.0 1.0 13 ------- null}
r -t 2.013 -s 0 -d 1 -p cbr -e 500 -c 0 -i 2 -a 0 -x {0.0 1.0 2 ------- null}
+ -t 2.014 -s 0 -d 1 -p cbr -e 500 -c 0 -i 14 -a 0 -x {0.0 1.0 14 ------- null}
+ -t 2.015 -s 0 -d 1 -p cbr -e 500 -c 0 -i 15 -a 0 -x {0.0 1.0 15 ------- null}
+ -t 2.016 -s 0 -d 1 -p cbr -e 500 -c 0 -i 16 -a 0 -x {0.0 1.0 16 ------- null}
- -t 2.016 -s 0 -d 1 -p cbr -e 500 -c 0 -i 4 -a 0 -x {0.0 1.0 4 ------- null}
h -t 2.016 -s 0 -d 1 -p cbr -e 500 -c 0 -i 4 -a 0 -x {0.0 1.0 -1 ------- null}
+ -t 2.017 -s 0 -d 1 -p cbr -e 500 -c 0 -i 17 -a 0 -x {0.0 1.0 17 ------- null}
r -t 2.017 -s 0 -d 1 -p cbr -e 500 -c 0 -i 3 -a 0 -x {0.0 1.0 3 ------- null}
+ -t 2.018 -s 0 -d 1 -p cbr -e 500 -c 0 -i 18 -a 0 -x {0.0 1.0 18 ------- null}
+ -t 2.019 -s 0 -d 1 -p cbr -e 500 -c 0 -i 19 -a 0 -x {0.0 1.0 19 ------- null}
+ -t 2.02 -s 0 -d 1 -p cbr -e 500 -c 0 -i 20 -a 0 -x {0.0 1.0 20 ------- null}
- -t 2.02 -s 0 -d 1 -p cbr -e 500 -c 0 -i 5 -a 0 -x {0.0 1.0 5 ------- null}
h -t 2.02 -s 0 -d 1 -p cbr -e 500 -c 0 -i 5 -a 0 -x {0.0 1.0 -1 ------- null}
+ -t 2.021 -s 0 -d 1 -p cbr -e 500 -c 0 -i 21 -a 0 -x {0.0 1.0 21 ------- null}
r -t 2.021 -s 0 -d 1 -p cbr -e 500 -c 0 -i 4 -a 0 -x {0.0 1.0 4 ------- null}
+ -t 2.022 -s 0 -d 1 -p cbr -e 500 -c 0 -i 22 -a 0 -x {0.0 1.0 22 ------- null}
+ -t 2.023 -s 0 -d 1 -p cbr -e 500 -c 0 -i 23 -a 0 -x {0.0 1.0 23 ------- null}
+ -t 2.024 -s 0 -d 1 -p cbr -e 500 -c 0 -i 24 -a 0 -x {0.0 1.0 24 ------- null}
- -t 2.024 -s 0 -d 1 -p cbr -e 500 -c 0 -i 6 -a 0 -x {0.0 1.0 6 ------- null}
h -t 2.024 -s 0 -d 1 -p cbr -e 500 -c 0 -i 6 -a 0 -x {0.0 1.0 -1 ------- null}
+ -t 2.025 -s 0 -d 1 -p cbr -e 500 -c 0 -i 25 -a 0 -x {0.0 1.0 25 ------- null}
r -t 2.025 -s 0 -d 1 -p cbr -e 500 -c 0 -i 5 -a 0 -x {0.0 1.0 5 ------- null}
+ -t 2.026 -s 0 -d 1 -p cbr -e 500 -c 0 -i 26 -a 0 -x {0.0 1.0 26 ------- null}
+ -t 2.027 -s 0 -d 1 -p cbr -e 500 -c 0 -i 27 -a 0 -x {0.0 1.0 27 ------- null}
+ -t 2.028 -s 0 -d 1 -p cbr -e 500 -c 0 -i 28 -a 0 -x {0.0 1.0 28 ------- null}
- -t 2.028 -s 0 -d 1 -p cbr -e 500 -c 0 -i 7 -a 0 -x {0.0 1.0 7 ------- null}
h -t 2.028 -s 0 -d 1 -p cbr -e 500 -c 0 -i 7 -a 0 -x {0.0 1.0 -1 ------- null}
+ -t 2.029 -s 0 -d 1 -p cbr -e 500 -c 0 -i 29 -a 0 -x {0.0 1.0 29 ------- null}
r -t 2.029 -s 0 -d 1 -p cbr -e 500 -c 0 -i 6 -a 0 -x {0.0 1.0 6 ------- null}
+ -t 2.03 -s 0 -d 1 -p cbr -e 500 -c 0 -i 30 -a 0 -x {0.0 1.0 30 ------- null}
+ -t 2.031 -s 0 -d 1 -p cbr -e 500 -c 0 -i 31 -a 0 -x {0.0 1.0 31 ------- null}
+ -t 2.032 -s 0 -d 1 -p cbr -e 500 -c 0 -i 32 -a 0 -x {0.0 1.0 32 ------- null}
- -t 2.032 -s 0 -d 1 -p cbr -e 500 -c 0 -i 8 -a 0 -x {0.0 1.0 8 ------- null}
h -t 2.032 -s 0 -d 1 -p cbr -e 500 -c 0 -i 8 -a 0 -x {0.0 1.0 -1 ------- null}
+ -t 2.033 -s 0 -d 1 -p cbr -e 500 -c 0 -i 33 -a 0 -x {0.0 1.0 33 ------- null}
r -t 2.033 -s 0 -d 1 -p cbr -e 500 -c 0 -i 7 -a 0 -x {0.0 1.0 7 ------- null}
+ -t 2.034 -s 0 -d 1 -p cbr -e 500 -c 0 -i 34 -a 0 -x {0.0 1.0 34 ------- null}
+ -t 2.035 -s 0 -d 1 -p cbr -e 500 -c 0 -i 35 -a 0 -x {0.0 1.0 35 ------- null}
+ -t 2.036 -s 0 -d 1 -p cbr -e 500 -c 0 -i 36 -a 0 -x {0.0 1.0 36 ------- null}
- -t 2.036 -s 0 -d 1 -p cbr -e 500 -c 0 -i 9 -a 0 -x {0.0 1.0 9 ------- null}
h -t 2.036 -s 0 -d 1 -p cbr -e 500 -c 0 -i 9 -a 0 -x {0.0 1.0 -1 ------- null}
+ -t 2.037 -s 0 -d 1 -p cbr -e 500 -c 0 -i 37 -a 0 -x {0.0 1.0 37 ------- null}
r -t 2.037 -s 0 -d 1 -p cbr -e 500 -c 0 -i 8 -a 0 -x {0.0 1.0 8 ------- null}
+ -t 2.038 -s 0 -d 1 -p cbr -e 500 -c 0 -i 38 -a 0 -x {0.0 1.0 38 ------- null}
+ -t 2.039 -s 0 -d 1 -p cbr -e 500 -c 0 -i 39 -a 0 -x {0.0 1.0 39 ------- null}
+ -t 2.04 -s 0 -d 1 -p cbr -e 500 -c 0 -i 40 -a 0 -x {0.0 1.0 40 ------- null}
- -t 2.04 -s 0 -d 1 -p cbr -e 500 -c 0 -i 10 -a 0 -x {0.0 1.0 10 ------- null}
h -t 2.04 -s 0 -d 1 -p cbr -e 500 -c 0 -i 10 -a 0 -x {0.0 1.0 -1 ------- null}
+ -t 2.041 -s 0 -d 1 -p cbr -e 500 -c 0 -i 41 -a 0 -x {0.0 1.0 41 ------- null}
r -t 2.041 -s 0 -d 1 -p cbr -e 500 -c 0 -i 9 -a 0 -x {0.0 1.0 9 ------- null}
+ -t 2.042 -s 0 -d 1 -p cbr -e 500 -c 0 -i 42 -a 0 -x {0.0 1.0 42 ------- null}
+ -t 2.043 -s 0 -d 1 -p cbr -e 500 -c 0 -i 43 -a 0 -x {0.0 1.0 43 ------- null}
+ -t 2.044 -s 0 -d 1 -p cbr -e 500 -c 0 -i 44 -a 0 -x {0.0 1.0 44 ------- null}
- -t 2.044 -s 0 -d 1 -p cbr -e 500 -c 0 -i 11 -a 0 -x {0.0 1.0 11 ------- null}
h -t 2.044 -s 0 -d 1 -p cbr -e 500 -c 0 -i 11 -a 0 -x {0.0 1.0 -1 ------- null}
+ -t 2.045 -s 0 -d 1 -p cbr -e 500 -c 0 -i 45 -a 0 -x {0.0 1.0 45 ------- null}
r -t 2.045 -s 0 -d 1 -p cbr -e 500 -c 0 -i 10 -a 0 -x {0.0 1.0 10 ------- null}
+ -t 2.04599999999999 -s 0 -d 1 -p cbr -e 500 -c 0 -i 46 -a 0 -x {0.0 1.0 46 ------- null}
+ -t 2.04699999999999 -s 0 -d 1 -p cbr -e 500 -c 0 -i 47 -a 0 -x {0.0 1.0 47 ------- null}
+ -t 2.04799999999999 -s 0 -d 1 -p cbr -e 500 -c 0 -i 48 -a 0 -x {0.0 1.0 48 ------- null}
- -t 2.048 -s 0 -d 1 -p cbr -e 500 -c 0 -i 12 -a 0 -x {0.0 1.0 12 ------- null}
h -t 2.048 -s 0 -d 1 -p cbr -e 500 -c 0 -i 12 -a 0 -x {0.0 1.0 -1 ------- null}
+ -t 2.04899999999999 -s 0 -d 1 -p cbr -e 500 -c 0 -i 49 -a 0 -x {0.0 1.0 49 ------- null}
r -t 2.049 -s 0 -d 1 -p cbr -e 500 -c 0 -i 11 -a 0 -x {0.0 1.0 11 ------- null}
+ -t 2.04999999999999 -s 0 -d 1 -p cbr -e 500 -c 0 -i 50 -a 0 -x {0.0 1.0 50 ------- null}
+ -t 2.05099999999999 -s 0 -d 1 -p cbr -e 500 -c 0 -i 51 -a 0 -x {0.0 1.0 51 ------- null}
+ -t 2.05199999999999 -s 0 -d 1 -p cbr -e 500 -c 0 -i 52 -a 0 -x {0.0 1.0 52 ------- null}
- -t 2.052 -s 0 -d 1 -p cbr -e 500 -c 0 -i 13 -a 0 -x {0.0 1.0 13 ------- null}
h -t 2.052 -s 0 -d 1 -p cbr -e 500 -c 0 -i 13 -a 0 -x {0.0 1.0 -1 ------- null}
+ -t 2.05299999999999 -s 0 -d 1 -p cbr -e 500 -c 0 -i 53 -a 0 -x {0.0 1.0 53 ------- null}
r -t 2.053 -s 0 -d 1 -p cbr -e 500 -c 0 -i 12 -a 0 -x {0.0 1.0 12 ------- null}
+ -t 2.05399999999999 -s 0 -d 1 -p cbr -e 500 -c 0 -i 54 -a 0 -x {0.0 1.0 54 ------- null}
+ -t 2.05499999999999 -s 0 -d 1 -p cbr -e 500 -c 0 -i 55 -a 0 -x {0.0 1.0 55 ------- null}
+ -t 2.05599999999999 -s 0 -d 1 -p cbr -e 500 -c 0 -i 56 -a 0 -x {0.0 1.0 56 ------- null}
- -t 2.056 -s 0 -d 1 -p cbr -e 500 -c 0 -i 14 -a 0 -x {0.0 1.0 14 ------- null}
h -t 2.056 -s 0 -d 1 -p cbr -e 500 -c 0 -i 14 -a 0 -x {0.0 1.0 -1 ------- null}
+ -t 2.05699999999999 -s 0 -d 1 -p cbr -e 500 -c 0 -i 57 -a 0 -x {0.0 1.0 57 ------- null}
r -t 2.057 -s 0 -d 1 -p cbr -e 500 -c 0 -i 13 -a 0 -x {0.0 1.0 13 ------- null}
+ -t 2.05799999999999 -s 0 -d 1 -p cbr -e 500 -c 0 -i 58 -a 0 -x {0.0 1.0 58 ------- null}
+ -t 2.05899999999999 -s 0 -d 1 -p cbr -e 500 -c 0 -i 59 -a 0 -x {0.0 1.0 59 ------- null}
+ -t 2.05999999999999 -s 0 -d 1 -p cbr -e 500 -c 0 -i 60 -a 0 -x {0.0 1.0 60 ------- null}
- -t 2.06 -s 0 -d 1 -p cbr -e 500 -c 0 -i 15 -a 0 -x {0.0 1.0 15 ------- null}
h -t 2.06 -s 0 -d 1 -p cbr -e 500 -c 0 -i 15 -a 0 -x {0.0 1.0 -1 ------- null}
+ -t 2.06099999999999 -s 0 -d 1 -p cbr -e 500 -c 0 -i 61 -a 0 -x {0.0 1.0 61 ------- null}
r -t 2.061 -s 0 -d 1 -p cbr -e 500 -c 0 -i 14 -a 0 -x {0.0 1.0 14 ------- null}
+ -t 2.06199999999999 -s 0 -d 1 -p cbr -e 500 -c 0 -i 62 -a 0 -x {0.0 1.0 62 ------- null}
+ -t 2.06299999999999 -s 0 -d 1 -p cbr -e 500 -c 0 -i 63 -a 0 -x {0.0 1.0 63 ------- null}
+ -t 2.06399999999999 -s 0 -d 1 -p cbr -e 500 -c 0 -i 64 -a 0 -x {0.0 1.0 64 ------- null}
- -t 2.064 -s 0 -d 1 -p cbr -e 500 -c 0 -i 16 -a 0 -x {0.0 1.0 16 ------- null}
h -t 2.064 -s 0 -d 1 -p cbr -e 500 -c 0 -i 16 -a 0 -x {0.0 1.0 -1 ------- null}
+ -t 2.06499999999999 -s 0 -d 1 -p cbr -e 500 -c 0 -i 65 -a 0 -x {0.0 1.0 65 ------- null}
r -t 2.065 -s 0 -d 1 -p cbr -e 500 -c 0 -i 15 -a 0 -x {0.0 1.0 15 ------- null}
+ -t 2.06599999999999 -s 0 -d 1 -p cbr -e 500 -c 0 -i 66 -a 0 -x {0.0 1.0 66 ------- null}
d -t 2.06599999999999 -s 0 -d 1 -p cbr -e 500 -c 0 -i 66 -a 0 -x {0.0 1.0 66 ------- null}
+ -t 2.06699999999999 -s 0 -d 1 -p cbr -e 500 -c 0 -i 67 -a 0 -x {0.0 1.0 67 ------- null}
d -t 2.06699999999999 -s 0 -d 1 -p cbr -e 500 -c 0 -i 67 -a 0 -x {0.0 1.0 67 ------- null}
+ -t 2.06799999999999 -s 0 -d 1 -p cbr -e 500 -c 0 -i 68 -a 0 -x {0.0 1.0 68 ------- null}
d -t 2.06799999999999 -s 0 -d 1 -p cbr -e 500 -c 0 -i 68 -a 0 -x {0.0 1.0 68 ------- null}
- -t 2.068 -s 0 -d 1 -p cbr -e 500 -c 0 -i 17 -a 0 -x {0.0 1.0 17 ------- null}
h -t 2.068 -s 0 -d 1 -p cbr -e 500 -c 0 -i 17 -a 0 -x {0.0 1.0 -1 ------- null}
+ -t 2.06899999999999 -s 0 -d 1 -p cbr -e 500 -c 0 -i 69 -a 0 -x {0.0 1.0 69 ------- null}
r -t 2.069 -s 0 -d 1 -p cbr -e 500 -c 0 -i 16 -a 0 -x {0.0 1.0 16 ------- null}
+ -t 2.06999999999999 -s 0 -d 1 -p cbr -e 500 -c 0 -i 70 -a 0 -x {0.0 1.0 70 ------- null}
d -t 2.06999999999999 -s 0 -d 1 -p cbr -e 500 -c 0 -i 70 -a 0 -x {0.0 1.0 70 ------- null}
+ -t 2.07099999999999 -s 0 -d 1 -p cbr -e 500 -c 0 -i 71 -a 0 -x {0.0 1.0 71 ------- null}
d -t 2.07099999999999 -s 0 -d 1 -p cbr -e 500 -c 0 -i 71 -a 0 -x {0.0 1.0 71 ------- null}
+ -t 2.07199999999999 -s 0 -d 1 -p cbr -e 500 -c 0 -i 72 -a 0 -x {0.0 1.0 72 ------- null}
d -t 2.07199999999999 -s 0 -d 1 -p cbr -e 500 -c 0 -i 72 -a 0 -x {0.0 1.0 72 ------- null}
- -t 2.072 -s 0 -d 1 -p cbr -e 500 -c 0 -i 18 -a 0 -x {0.0 1.0 18 ------- null}
h -t 2.072 -s 0 -d 1 -p cbr -e 500 -c 0 -i 18 -a 0 -x {0.0 1.0 -1 ------- null}
+ -t 2.07299999999999 -s 0 -d 1 -p cbr -e 500 -c 0 -i 73 -a 0 -x {0.0 1.0 73 ------- null}
r -t 2.073 -s 0 -d 1 -p cbr -e 500 -c 0 -i 17 -a 0 -x {0.0 1.0 17 ------- null}
+ -t 2.07399999999999 -s 0 -d 1 -p cbr -e 500 -c 0 -i 74 -a 0 -x {0.0 1.0 74 ------- null}
d -t 2.07399999999999 -s 0 -d 1 -p cbr -e 500 -c 0 -i 74 -a 0 -x {0.0 1.0 74 ------- null}
+ -t 2.07499999999999 -s 0 -d 1 -p cbr -e 500 -c 0 -i 75 -a 0 -x {0.0 1.0 75 ------- null}
d -t 2.07499999999999 -s 0 -d 1 -p cbr -e 500 -c 0 -i 75 -a 0 -x {0.0 1.0 75 ------- null}
+ -t 2.07599999999999 -s 0 -d 1 -p cbr -e 500 -c 0 -i 76 -a 0 -x {0.0 1.0 76 ------- null}
d -t 2.07599999999999 -s 0 -d 1 -p cbr -e 500 -c 0 -i 76 -a 0 -x {0.0 1.0 76 ------- null}
- -t 2.076 -s 0 -d 1 -p cbr -e 500 -c 0 -i 19 -a 0 -x {0.0 1.0 19 ------- null}
h -t 2.076 -s 0 -d 1 -p cbr -e 500 -c 0 -i 19 -a 0 -x {0.0 1.0 -1 ------- null}
+ -t 2.07699999999999 -s 0 -d 1 -p cbr -e 500 -c 0 -i 77 -a 0 -x {0.0 1.0 77 ------- null}
r -t 2.077 -s 0 -d 1 -p cbr -e 500 -c 0 -i 18 -a 0 -x {0.0 1.0 18 ------- null}
+ -t 2.07799999999999 -s 0 -d 1 -p cbr -e 500 -c 0 -i 78 -a 0 -x {0.0 1.0 78 ------- null}
d -t 2.07799999999999 -s 0 -d 1 -p cbr -e 500 -c 0 -i 78 -a 0 -x {0.0 1.0 78 ------- null}
+ -t 2.07899999999999 -s 0 -d 1 -p cbr -e 500 -c 0 -i 79 -a 0 -x {0.0 1.0 79 ------- null}
d -t 2.07899999999999 -s 0 -d 1 -p cbr -e 500 -c 0 -i 79 -a 0 -x {0.0 1.0 79 ------- null}
+ -t 2.07999999999999 -s 0 -d 1 -p cbr -e 500 -c 0 -i 80 -a 0 -x {0.0 1.0 80 ------- null}
d -t 2.07999999999999 -s 0 -d 1 -p cbr -e 500 -c 0 -i 80 -a 0 -x {0.0 1.0 80 ------- null}
- -t 2.08 -s 0 -d 1 -p cbr -e 500 -c 0 -i 20 -a 0 -x {0.0 1.0 20 ------- null}
h -t 2.08 -s 0 -d 1 -p cbr -e 500 -c 0 -i 20 -a 0 -x {0.0 1.0 -1 ------- null}
+ -t 2.08099999999999 -s 0 -d 1 -p cbr -e 500 -c 0 -i 81 -a 0 -x {0.0 1.0 81 ------- null}
r -t 2.081 -s 0 -d 1 -p cbr -e 500 -c 0 -i 19 -a 0 -x {0.0 1.0 19 ------- null}
+ -t 2.08199999999999 -s 0 -d 1 -p cbr -e 500 -c 0 -i 82 -a 0 -x {0.0 1.0 82 ------- null}
d -t 2.08199999999999 -s 0 -d 1 -p cbr -e 500 -c 0 -i 82 -a 0 -x {0.0 1.0 82 ------- null}
+ -t 2.08299999999999 -s 0 -d 1 -p cbr -e 500 -c 0 -i 83 -a 0 -x {0.0 1.0 83 ------- null}
d -t 2.08299999999999 -s 0 -d 1 -p cbr -e 500 -c 0 -i 83 -a 0 -x {0.0 1.0 83 ------- null}
+ -t 2.08399999999999 -s 0 -d 1 -p cbr -e 500 -c 0 -i 84 -a 0 -x {0.0 1.0 84 ------- null}
d -t 2.08399999999999 -s 0 -d 1 -p cbr -e 500 -c 0 -i 84 -a 0 -x {0.0 1.0 84 ------- null}
- -t 2.084 -s 0 -d 1 -p cbr -e 500 -c 0 -i 21 -a 0 -x {0.0 1.0 21 ------- null}
h -t 2.084 -s 0 -d 1 -p cbr -e 500 -c 0 -i 21 -a 0 -x {0.0 1.0 -1 ------- null}
+ -t 2.08499999999999 -s 0 -d 1 -p cbr -e 500 -c 0 -i 85 -a 0 -x {0.0 1.0 85 ------- null}
r -t 2.085 -s 0 -d 1 -p cbr -e 500 -c 0 -i 20 -a 0 -x {0.0 1.0 20 ------- null}
+ -t 2.08599999999999 -s 0 -d 1 -p cbr -e 500 -c 0 -i 86 -a 0 -x {0.0 1.0 86 ------- null}
d -t 2.08599999999999 -s 0 -d 1 -p cbr -e 500 -c 0 -i 86 -a 0 -x {0.0 1.0 86 ------- null}
+ -t 2.08699999999999 -s 0 -d 1 -p cbr -e 500 -c 0 -i 87 -a 0 -x {0.0 1.0 87 ------- null}
d -t 2.08699999999999 -s 0 -d 1 -p cbr -e 500 -c 0 -i 87 -a 0 -x {0.0 1.0 87 ------- null}
+ -t 2.08799999999999 -s 0 -d 1 -p cbr -e 500 -c 0 -i 88 -a 0 -x {0.0 1.0 88 ------- null}
d -t 2.08799999999999 -s 0 -d 1 -p cbr -e 500 -c 0 -i 88 -a 0 -x {0.0 1.0 88 ------- null}
- -t 2.088 -s 0 -d 1 -p cbr -e 500 -c 0 -i 22 -a 0 -x {0.0 1.0 22 ------- null}
h -t 2.088 -s 0 -d 1 -p cbr -e 500 -c 0 -i 22 -a 0 -x {0.0 1.0 -1 ------- null}
+ -t 2.08899999999999 -s 0 -d 1 -p cbr -e 500 -c 0 -i 89 -a 0 -x {0.0 1.0 89 ------- null}
r -t 2.089 -s 0 -d 1 -p cbr -e 500 -c 0 -i 21 -a 0 -x {0.0 1.0 21 ------- null}
+ -t 2.08999999999999 -s 0 -d 1 -p cbr -e 500 -c 0 -i 90 -a 0 -x {0.0 1.0 90 ------- null}
d -t 2.08999999999999 -s 0 -d 1 -p cbr -e 500 -c 0 -i 90 -a 0 -x {0.0 1.0 90 ------- null}
+ -t 2.09099999999999 -s 0 -d 1 -p cbr -e 500 -c 0 -i 91 -a 0 -x {0.0 1.0 91 ------- null}
d -t 2.09099999999999 -s 0 -d 1 -p cbr -e 500 -c 0 -i 91 -a 0 -x {0.0 1.0 91 ------- null}
+ -t 2.09199999999999 -s 0 -d 1 -p cbr -e 500 -c 0 -i 92 -a 0 -x {0.0 1.0 92 ------- null}
d -t 2.09199999999999 -s 0 -d 1 -p cbr -e 500 -c 0 -i 92 -a 0 -x {0.0 1.0 92 ------- null}
- -t 2.092 -s 0 -d 1 -p cbr -e 500 -c 0 -i 23 -a 0 -x {0.0 1.0 23 ------- null}
h -t 2.092 -s 0 -d 1 -p cbr -e 500 -c 0 -i 23 -a 0 -x {0.0 1.0 -1 ------- null}
+ -t 2.09299999999999 -s 0 -d 1 -p cbr -e 500 -c 0 -i 93 -a 0 -x {0.0 1.0 93 ------- null}
r -t 2.093 -s 0 -d 1 -p cbr -e 500 -c 0 -i 22 -a 0 -x {0.0 1.0 22 ------- null}
+ -t 2.09399999999999 -s 0 -d 1 -p cbr -e 500 -c 0 -i 94 -a 0 -x {0.0 1.0 94 ------- null}
d -t 2.09399999999999 -s 0 -d 1 -p cbr -e 500 -c 0 -i 94 -a 0 -x {0.0 1.0 94 ------- null}
+ -t 2.09499999999999 -s 0 -d 1 -p cbr -e 500 -c 0 -i 95 -a 0 -x {0.0 1.0 95 ------- null}
d -t 2.09499999999999 -s 0 -d 1 -p cbr -e 500 -c 0 -i 95 -a 0 -x {0.0 1.0 95 ------- null}
+ -t 2.09599999999999 -s 0 -d 1 -p cbr -e 500 -c 0 -i 96 -a 0 -x {0.0 1.0 96 ------- null}
d -t 2.09599999999999 -s 0 -d 1 -p cbr -e 500 -c 0 -i 96 -a 0 -x {0.0 1.0 96 ------- null}
- -t 2.096 -s 0 -d 1 -p cbr -e 500 -c 0 -i 24 -a 0 -x {0.0 1.0 24 ------- null}
h -t 2.096 -s 0 -d 1 -p cbr -e 500 -c 0 -i 24 -a 0 -x {0.0 1.0 -1 ------- null}
+ -t 2.09699999999999 -s 0 -d 1 -p cbr -e 500 -c 0 -i 97 -a 0 -x {0.0 1.0 97 ------- null}
r -t 2.097 -s 0 -d 1 -p cbr -e 500 -c 0 -i 23 -a 0 -x {0.0 1.0 23 ------- null}
+ -t 2.09799999999999 -s 0 -d 1 -p cbr -e 500 -c 0 -i 98 -a 0 -x {0.0 1.0 98 ------- null}
d -t 2.09799999999999 -s 0 -d 1 -p cbr -e 500 -c 0 -i 98 -a 0 -x {0.0 1.0 98 ------- null}
+ -t 2.09899999999999 -s 0 -d 1 -p cbr -e 500 -c 0 -i 99 -a 0 -x {0.0 1.0 99 ------- null}
d -t 2.09899999999999 -s 0 -d 1 -p cbr -e 500 -c 0 -i 99 -a 0 -x {0.0 1.0 99 ------- null}
+ -t 2.09999999999999 -s 0 -d 1 -p cbr -e 500 -c 0 -i 100 -a 0 -x {0.0 1.0 100 ------- null}
d -t 2.09999999999999 -s 0 -d 1 -p cbr -e 500 -c 0 -i 100 -a 0 -x {0.0 1.0 100 ------- null}
- -t 2.1 -s 0 -d 1 -p cbr -e 500 -c 0 -i 25 -a 0 -x {0.0 1.0 25 ------- null}
h -t 2.1 -s 0 -d 1 -p cbr -e 500 -c 0 -i 25 -a 0 -x {0.0 1.0 -1 ------- null}
+ -t 2.10099999999999 -s 0 -d 1 -p cbr -e 500 -c 0 -i 101 -a 0 -x {0.0 1.0 101 ------- null}
r -t 2.101 -s 0 -d 1 -p cbr -e 500 -c 0 -i 24 -a 0 -x {0.0 1.0 24 ------- null}
+ -t 2.10199999999999 -s 0 -d 1 -p cbr -e 500 -c 0 -i 102 -a 0 -x {0.0 1.0 102 ------- null}
d -t 2.10199999999999 -s 0 -d 1 -p cbr -e 500 -c 0 -i 102 -a 0 -x {0.0 1.0 102 ------- null}
+ -t 2.10299999999999 -s 0 -d 1 -p cbr -e 500 -c 0 -i 103 -a 0 -x {0.0 1.0 103 ------- null}
d -t 2.10299999999999 -s 0 -d 1 -p cbr -e 500 -c 0 -i 103 -a 0 -x {0.0 1.0 103 ------- null}
+ -t 2.10399999999999 -s 0 -d 1 -p cbr -e 500 -c 0 -i 104 -a 0 -x {0.0 1.0 104 ------- null}
d -t 2.10399999999999 -s 0 -d 1 -p cbr -e 500 -c 0 -i 104 -a 0 -x {0.0 1.0 104 ------- null}
- -t 2.104 -s 0 -d 1 -p cbr -e 500 -c 0 -i 26 -a 0 -x {0.0 1.0 26 ------- null}
h -t 2.104 -s 0 -d 1 -p cbr -e 500 -c 0 -i 26 -a 0 -x {0.0 1.0 -1 ------- null}
+ -t 2.10499999999999 -s 0 -d 1 -p cbr -e 500 -c 0 -i 105 -a 0 -x {0.0 1.0 105 ------- null}
r -t 2.105 -s 0 -d 1 -p cbr -e 500 -c 0 -i 25 -a 0 -x {0.0 1.0 25 ------- null}
+ -t 2.10599999999999 -s 0 -d 1 -p cbr -e 500 -c 0 -i 106 -a 0 -x {0.0 1.0 106 ------- null}
d -t 2.10599999999999 -s 0 -d 1 -p cbr -e 500 -c 0 -i 106 -a 0 -x {0.0 1.0 106 ------- null}
+ -t 2.10699999999999 -s 0 -d 1 -p cbr -e 500 -c 0 -i 107 -a 0 -x {0.0 1.0 107 ------- null}
d -t 2.10699999999999 -s 0 -d 1 -p cbr -e 500 -c 0 -i 107 -a 0 -x {0.0 1.0 107 ------- null}
+ -t 2.10799999999999 -s 0 -d 1 -p cbr -e 500 -c 0 -i 108 -a 0 -x {0.0 1.0 108 ------- null}
d -t 2.10799999999999 -s 0 -d 1 -p cbr -e 500 -c 0 -i 108 -a 0 -x {0.0 1.0 108 ------- null}
- -t 2.108 -s 0 -d 1 -p cbr -e 500 -c 0 -i 27 -a 0 -x {0.0 1.0 27 ------- null}
h -t 2.108 -s 0 -d 1 -p cbr -e 500 -c 0 -i 27 -a 0 -x {0.0 1.0 -1 ------- null}
+ -t 2.10899999999999 -s 0 -d 1 -p cbr -e 500 -c 0 -i 109 -a 0 -x {0.0 1.0 109 ------- null}
r -t 2.109 -s 0 -d 1 -p cbr -e 500 -c 0 -i 26 -a 0 -x {0.0 1.0 26 ------- null}
+ -t 2.10999999999999 -s 0 -d 1 -p cbr -e 500 -c 0 -i 110 -a 0 -x {0.0 1.0 110 ------- null}
d -t 2.10999999999999 -s 0 -d 1 -p cbr -e 500 -c 0 -i 110 -a 0 -x {0.0 1.0 110 ------- null}
+ -t 2.11099999999999 -s 0 -d 1 -p cbr -e 500 -c 0 -i 111 -a 0 -x {0.0 1.0 111 ------- null}
d -t 2.11099999999999 -s 0 -d 1 -p cbr -e 500 -c 0 -i 111 -a 0 -x {0.0 1.0 111 ------- null}
+ -t 2.11199999999999 -s 0 -d 1 -p cbr -e 500 -c 0 -i 112 -a 0 -x {0.0 1.0 112 ------- null}
d -t 2.11199999999999 -s 0 -d 1 -p cbr -e 500 -c 0 -i 112 -a 0 -x {0.0 1.0 112 ------- null}
- -t 2.112 -s 0 -d 1 -p cbr -e 500 -c 0 -i 28 -a 0 -x {0.0 1.0 28 ------- null}
h -t 2.112 -s 0 -d 1 -p cbr -e 500 -c 0 -i 28 -a 0 -x {0.0 1.0 -1 ------- null}
+ -t 2.11299999999999 -s 0 -d 1 -p cbr -e 500 -c 0 -i 113 -a 0 -x {0.0 1.0 113 ------- null}
r -t 2.113 -s 0 -d 1 -p cbr -e 500 -c 0 -i 27 -a 0 -x {0.0 1.0 27 ------- null}
+ -t 2.11399999999999 -s 0 -d 1 -p cbr -e 500 -c 0 -i 114 -a 0 -x {0.0 1.0 114 ------- null}
d -t 2.11399999999999 -s 0 -d 1 -p cbr -e 500 -c 0 -i 114 -a 0 -x {0.0 1.0 114 ------- null}
+ -t 2.11499999999999 -s 0 -d 1 -p cbr -e 500 -c 0 -i 115 -a 0 -x {0.0 1.0 115 ------- null}
d -t 2.11499999999999 -s 0 -d 1 -p cbr -e 500 -c 0 -i 115 -a 0 -x {0.0 1.0 115 ------- null}
+ -t 2.11599999999999 -s 0 -d 1 -p cbr -e 500 -c 0 -i 116 -a 0 -x {0.0 1.0 116 ------- null}
d -t 2.11599999999999 -s 0 -d 1 -p cbr -e 500 -c 0 -i 116 -a 0 -x {0.0 1.0 116 ------- null}
- -t 2.116 -s 0 -d 1 -p cbr -e 500 -c 0 -i 29 -a 0 -x {0.0 1.0 29 ------- null}
h -t 2.116 -s 0 -d 1 -p cbr -e 500 -c 0 -i 29 -a 0 -x {0.0 1.0 -1 ------- null}
+ -t 2.11699999999999 -s 0 -d 1 -p cbr -e 500 -c 0 -i 117 -a 0 -x {0.0 1.0 117 ------- null}
r -t 2.117 -s 0 -d 1 -p cbr -e 500 -c 0 -i 28 -a 0 -x {0.0 1.0 28 ------- null}
+ -t 2.11799999999999 -s 0 -d 1 -p cbr -e 500 -c 0 -i 118 -a 0 -x {0.0 1.0 118 ------- null}
d -t 2.11799999999999 -s 0 -d 1 -p cbr -e 500 -c 0 -i 118 -a 0 -x {0.0 1.0 118 ------- null}
+ -t 2.11899999999999 -s 0 -d 1 -p cbr -e 500 -c 0 -i 119 -a 0 -x {0.0 1.0 119 ------- null}
d -t 2.11899999999999 -s 0 -d 1 -p cbr -e 500 -c 0 -i 119 -a 0 -x {0.0 1.0 119 ------- null}
+ -t 2.11999999999999 -s 0 -d 1 -p cbr -e 500 -c 0 -i 120 -a 0 -x {0.0 1.0 120 ------- null}
d -t 2.11999999999999 -s 0 -d 1 -p cbr -e 500 -c 0 -i 120 -a 0 -x {0.0 1.0 120 ------- null}
- -t 2.12 -s 0 -d 1 -p cbr -e 500 -c 0 -i 30 -a 0 -x {0.0 1.0 30 ------- null}
h -t 2.12 -s 0 -d 1 -p cbr -e 500 -c 0 -i 30 -a 0 -x {0.0 1.0 -1 ------- null}
+ -t 2.12099999999999 -s 0 -d 1 -p cbr -e 500 -c 0 -i 121 -a 0 -x {0.0 1.0 121 ------- null}
r -t 2.121 -s 0 -d 1 -p cbr -e 500 -c 0 -i 29 -a 0 -x {0.0 1.0 29 ------- null}
+ -t 2.12199999999999 -s 0 -d 1 -p cbr -e 500 -c 0 -i 122 -a 0 -x {0.0 1.0 122 ------- null}
d -t 2.12199999999999 -s 0 -d 1 -p cbr -e 500 -c 0 -i 122 -a 0 -x {0.0 1.0 122 ------- null}
+ -t 2.12299999999999 -s 0 -d 1 -p cbr -e 500 -c 0 -i 123 -a 0 -x {0.0 1.0 123 ------- null}
d -t 2.12299999999999 -s 0 -d 1 -p cbr -e 500 -c 0 -i 123 -a 0 -x {0.0 1.0 123 ------- null}
+ -t 2.12399999999999 -s 0 -d 1 -p cbr -e 500 -c 0 -i 124 -a 0 -x {0.0 1.0 124 ------- null}
d -t 2.12399999999999 -s 0 -d 1 -p cbr -e 500 -c 0 -i 124 -a 0 -x {0.0 1.0 124 ------- null}
- -t 2.124 -s 0 -d 1 -p cbr -e 500 -c 0 -i 31 -a 0 -x {0.0 1.0 31 ------- null}
h -t 2.124 -s 0 -d 1 -p cbr -e 500 -c 0 -i 31 -a 0 -x {0.0 1.0 -1 ------- null}
+ -t 2.12499999999999 -s 0 -d 1 -p cbr -e 500 -c 0 -i 125 -a 0 -x {0.0 1.0 125 ------- null}
r -t 2.125 -s 0 -d 1 -p cbr -e 500 -c 0 -i 30 -a 0 -x {0.0 1.0 30 ------- null}
+ -t 2.12599999999999 -s 0 -d 1 -p cbr -e 500 -c 0 -i 126 -a 0 -x {0.0 1.0 126 ------- null}
d -t 2.12599999999999 -s 0 -d 1 -p cbr -e 500 -c 0 -i 126 -a 0 -x {0.0 1.0 126 ------- null}
+ -t 2.12699999999999 -s 0 -d 1 -p cbr -e 500 -c 0 -i 127 -a 0 -x {0.0 1.0 127 ------- null}
d -t 2.12699999999999 -s 0 -d 1 -p cbr -e 500 -c 0 -i 127 -a 0 -x {0.0 1.0 127 ------- null}
+ -t 2.12799999999999 -s 0 -d 1 -p cbr -e 500 -c 0 -i 128 -a 0 -x {0.0 1.0 128 ------- null}
d -t 2.12799999999999 -s 0 -d 1 -p cbr -e 500 -c 0 -i 128 -a 0 -x {0.0 1.0 128 ------- null}
- -t 2.128 -s 0 -d 1 -p cbr -e 500 -c 0 -i 32 -a 0 -x {0.0 1.0 32 ------- null}
h -t 2.128 -s 0 -d 1 -p cbr -e 500 -c 0 -i 32 -a 0 -x {0.0 1.0 -1 ------- null}
+ -t 2.12899999999999 -s 0 -d 1 -p cbr -e 500 -c 0 -i 129 -a 0 -x {0.0 1.0 129 ------- null}
r -t 2.129 -s 0 -d 1 -p cbr -e 500 -c 0 -i 31 -a 0 -x {0.0 1.0 31 ------- null}
+ -t 2.12999999999999 -s 0 -d 1 -p cbr -e 500 -c 0 -i 130 -a 0 -x {0.0 1.0 130 ------- null}
d -t 2.12999999999999 -s 0 -d 1 -p cbr -e 500 -c 0 -i 130 -a 0 -x {0.0 1.0 130 ------- null}
+ -t 2.13099999999999 -s 0 -d 1 -p cbr -e 500 -c 0 -i 131 -a 0 -x {0.0 1.0 131 ------- null}
d -t 2.13099999999999 -s 0 -d 1 -p cbr -e 500 -c 0 -i 131 -a 0 -x {0.0 1.0 131 ------- null}
+ -t 2.13199999999999 -s 0 -d 1 -p cbr -e 500 -c 0 -i 132 -a 0 -x {0.0 1.0 132 ------- null}
d -t 2.13199999999999 -s 0 -d 1 -p cbr -e 500 -c 0 -i 132 -a 0 -x {0.0 1.0 132 ------- null}
- -t 2.132 -s 0 -d 1 -p cbr -e 500 -c 0 -i 33 -a 0 -x {0.0 1.0 33 ------- null}
h -t 2.132 -s 0 -d 1 -p cbr -e 500 -c 0 -i 33 -a 0 -x {0.0 1.0 -1 ------- null}
+ -t 2.13299999999999 -s 0 -d 1 -p cbr -e 500 -c 0 -i 133 -a 0 -x {0.0 1.0 133 ------- null}
r -t 2.133 -s 0 -d 1 -p cbr -e 500 -c 0 -i 32 -a 0 -x {0.0 1.0 32 ------- null}
+ -t 2.13399999999999 -s 0 -d 1 -p cbr -e 500 -c 0 -i 134 -a 0 -x {0.0 1.0 134 ------- null}
d -t 2.13399999999999 -s 0 -d 1 -p cbr -e 500 -c 0 -i 134 -a 0 -x {0.0 1.0 134 ------- null}
+ -t 2.13499999999999 -s 0 -d 1 -p cbr -e 500 -c 0 -i 135 -a 0 -x {0.0 1.0 135 ------- null}
d -t 2.13499999999999 -s 0 -d 1 -p cbr -e 500 -c 0 -i 135 -a 0 -x {0.0 1.0 135 ------- null}
+ -t 2.13599999999999 -s 0 -d 1 -p cbr -e 500 -c 0 -i 136 -a 0 -x {0.0 1.0 136 ------- null}
d -t 2.13599999999999 -s 0 -d 1 -p cbr -e 500 -c 0 -i 136 -a 0 -x {0.0 1.0 136 ------- null}
- -t 2.136 -s 0 -d 1 -p cbr -e 500 -c 0 -i 34 -a 0 -x {0.0 1.0 34 ------- null}
h -t 2.136 -s 0 -d 1 -p cbr -e 500 -c 0 -i 34 -a 0 -x {0.0 1.0 -1 ------- null}
+ -t 2.13699999999998 -s 0 -d 1 -p cbr -e 500 -c 0 -i 137 -a 0 -x {0.0 1.0 137 ------- null}
r -t 2.137 -s 0 -d 1 -p cbr -e 500 -c 0 -i 33 -a 0 -x {0.0 1.0 33 ------- null}
+ -t 2.13799999999998 -s 0 -d 1 -p cbr -e 500 -c 0 -i 138 -a 0 -x {0.0 1.0 138 ------- null}
d -t 2.13799999999998 -s 0 -d 1 -p cbr -e 500 -c 0 -i 138 -a 0 -x {0.0 1.0 138 ------- null}
+ -t 2.13899999999998 -s 0 -d 1 -p cbr -e 500 -c 0 -i 139 -a 0 -x {0.0 1.0 139 ------- null}
d -t 2.13899999999998 -s 0 -d 1 -p cbr -e 500 -c 0 -i 139 -a 0 -x {0.0 1.0 139 ------- null}
+ -t 2.13999999999998 -s 0 -d 1 -p cbr -e 500 -c 0 -i 140 -a 0 -x {0.0 1.0 140 ------- null}
d -t 2.13999999999998 -s 0 -d 1 -p cbr -e 500 -c 0 -i 140 -a 0 -x {0.0 1.0 140 ------- null}
- -t 2.14 -s 0 -d 1 -p cbr -e 500 -c 0 -i 35 -a 0 -x {0.0 1.0 35 ------- null}
h -t 2.14 -s 0 -d 1 -p cbr -e 500 -c 0 -i 35 -a 0 -x {0.0 1.0 -1 ------- null}
+ -t 2.14099999999998 -s 0 -d 1 -p cbr -e 500 -c 0 -i 141 -a 0 -x {0.0 1.0 141 ------- null}
r -t 2.141 -s 0 -d 1 -p cbr -e 500 -c 0 -i 34 -a 0 -x {0.0 1.0 34 ------- null}
+ -t 2.14199999999998 -s 0 -d 1 -p cbr -e 500 -c 0 -i 142 -a 0 -x {0.0 1.0 142 ------- null}
d -t 2.14199999999998 -s 0 -d 1 -p cbr -e 500 -c 0 -i 142 -a 0 -x {0.0 1.0 142 ------- null}
+ -t 2.14299999999998 -s 0 -d 1 -p cbr -e 500 -c 0 -i 143 -a 0 -x {0.0 1.0 143 ------- null}
d -t 2.14299999999998 -s 0 -d 1 -p cbr -e 500 -c 0 -i 143 -a 0 -x {0.0 1.0 143 ------- null}
+ -t 2.14399999999998 -s 0 -d 1 -p cbr -e 500 -c 0 -i 144 -a 0 -x {0.0 1.0 144 ------- null}
d -t 2.14399999999998 -s 0 -d 1 -p cbr -e 500 -c 0 -i 144 -a 0 -x {0.0 1.0 144 ------- null}
- -t 2.144 -s 0 -d 1 -p cbr -e 500 -c 0 -i 36 -a 0 -x {0.0 1.0 36 ------- null}
h -t 2.144 -s 0 -d 1 -p cbr -e 500 -c 0 -i 36 -a 0 -x {0.0 1.0 -1 ------- null}
+ -t 2.14499999999998 -s 0 -d 1 -p cbr -e 500 -c 0 -i 145 -a 0 -x {0.0 1.0 145 ------- null}
r -t 2.145 -s 0 -d 1 -p cbr -e 500 -c 0 -i 35 -a 0 -x {0.0 1.0 35 ------- null}
+ -t 2.14599999999998 -s 0 -d 1 -p cbr -e 500 -c 0 -i 146 -a 0 -x {0.0 1.0 146 ------- null}
d -t 2.14599999999998 -s 0 -d 1 -p cbr -e 500 -c 0 -i 146 -a 0 -x {0.0 1.0 146 ------- null}
+ -t 2.14699999999998 -s 0 -d 1 -p cbr -e 500 -c 0 -i 147 -a 0 -x {0.0 1.0 147 ------- null}
d -t 2.14699999999998 -s 0 -d 1 -p cbr -e 500 -c 0 -i 147 -a 0 -x {0.0 1.0 147 ------- null}
+ -t 2.14799999999998 -s 0 -d 1 -p cbr -e 500 -c 0 -i 148 -a 0 -x {0.0 1.0 148 ------- null}
d -t 2.14799999999998 -s 0 -d 1 -p cbr -e 500 -c 0 -i 148 -a 0 -x {0.0 1.0 148 ------- null}
- -t 2.148 -s 0 -d 1 -p cbr -e 500 -c 0 -i 37 -a 0 -x {0.0 1.0 37 ------- null}
h -t 2.148 -s 0 -d 1 -p cbr -e 500 -c 0 -i 37 -a 0 -x {0.0 1.0 -1 ------- null}
+ -t 2.14899999999998 -s 0 -d 1 -p cbr -e 500 -c 0 -i 149 -a 0 -x {0.0 1.0 149 ------- null}
r -t 2.149 -s 0 -d 1 -p cbr -e 500 -c 0 -i 36 -a 0 -x {0.0 1.0 36 ------- null}
+ -t 2.14999999999998 -s 0 -d 1 -p cbr -e 500 -c 0 -i 150 -a 0 -x {0.0 1.0 150 ------- null}
d -t 2.14999999999998 -s 0 -d 1 -p cbr -e 500 -c 0 -i 150 -a 0 -x {0.0 1.0 150 ------- null}
+ -t 2.15099999999998 -s 0 -d 1 -p cbr -e 500 -c 0 -i 151 -a 0 -x {0.0 1.0 151 ------- null}
d -t 2.15099999999998 -s 0 -d 1 -p cbr -e 500 -c 0 -i 151 -a 0 -x {0.0 1.0 151 ------- null}
+ -t 2.15199999999998 -s 0 -d 1 -p cbr -e 500 -c 0 -i 152 -a 0 -x {0.0 1.0 152 ------- null}
d -t 2.15199999999998 -s 0 -d 1 -p cbr -e 500 -c 0 -i 152 -a 0 -x {0.0 1.0 152 ------- null}
- -t 2.152 -s 0 -d 1 -p cbr -e 500 -c 0 -i 38 -a 0 -x {0.0 1.0 38 ------- null}
h -t 2.152 -s 0 -d 1 -p cbr -e 500 -c 0 -i 38 -a 0 -x {0.0 1.0 -1 ------- null}
+ -t 2.15299999999998 -s 0 -d 1 -p cbr -e 500 -c 0 -i 153 -a 0 -x {0.0 1.0 153 ------- null}
r -t 2.153 -s 0 -d 1 -p cbr -e 500 -c 0 -i 37 -a 0 -x {0.0 1.0 37 ------- null}
+ -t 2.15399999999998 -s 0 -d 1 -p cbr -e 500 -c 0 -i 154 -a 0 -x {0.0 1.0 154 ------- null}
d -t 2.15399999999998 -s 0 -d 1 -p cbr -e 500 -c 0 -i 154 -a 0 -x {0.0 1.0 154 ------- null}
+ -t 2.15499999999998 -s 0 -d 1 -p cbr -e 500 -c 0 -i 155 -a 0 -x {0.0 1.0 155 ------- null}
d -t 2.15499999999998 -s 0 -d 1 -p cbr -e 500 -c 0 -i 155 -a 0 -x {0.0 1.0 155 ------- null}
+ -t 2.15599999999998 -s 0 -d 1 -p cbr -e 500 -c 0 -i 156 -a 0 -x {0.0 1.0 156 ------- null}
d -t 2.15599999999998 -s 0 -d 1 -p cbr -e 500 -c 0 -i 156 -a 0 -x {0.0 1.0 156 ------- null}
- -t 2.156 -s 0 -d 1 -p cbr -e 500 -c 0 -i 39 -a 0 -x {0.0 1.0 39 ------- null}
h -t 2.156 -s 0 -d 1 -p cbr -e 500 -c 0 -i 39 -a 0 -x {0.0 1.0 -1 ------- null}