+ 2 0 1 cbr 500 ------- 0 0.0 1.0 0 0
- 2 0 1 cbr 500 ------- 0 0.0 1.0 0 0
+ 2.001 0 1 cbr 500 ------- 0 0.0 1.0 1 1
+ 2.002 0 1 cbr 500 ------- 0 0.0 1.0 2 2
+ 2.003 0 1 cbr 500 ------- 0 0.0 1.0 3 3
+ 2.004 0 1 cbr 500 ------- 0 0.0 1.0 4 4
- 2.004 0 1 cbr 500 ------- 0 0.0 1.0 1 1
+ 2.005 0 1 cbr 500 ------- 0 0.0 1.0 5 5
r 2.005 0 1 cbr 500 ------- 0 0.0 1.0 0 0
+ 2.006 0 1 cbr 500 ------- 0 0.0 1.0 6 6
+ 2.007 0 1 cbr 500 ------- 0 0.0 1.0 7 7
+ 2.008 0 1 cbr 500 ------- 0 0.0 1.0 8 8
- 2.008 0 1 cbr 500 ------- 0 0.0 1.0 2 2
+ 2.009 0 1 cbr 500 ------- 0 0.0 1.0 9 9
r 2.009 0 1 cbr 500 ------- 0 0.0 1.0 1 1
+ 2.01 0 1 cbr 500 ------- 0 0.0 1.0 10 10
+ 2.011 0 1 cbr 500 ------- 0 0.0 1.0 11 11
+ 2.012 0 1 cbr 500 ------- 0 0.0 1.0 12 12
- 2.012 0 1 cbr 500 ------- 0 0.0 1.0 3 3
+ 2.013 0 1 cbr 500 ------- 0 0.0 1.0 13 13
r 2.013 0 1 cbr 500 ------- 0 0.0 1.0 2 2
+ 2.014 0 1 cbr 500 ------- 0 0.0 1.0 14 14
+ 2.015 0 1 cbr 500 ------- 0 0.0 1.0 15 15
+ 2.016 0 1 cbr 500 ------- 0 0.0 1.0 16 16
- 2.016 0 1 cbr 500 ------- 0 0.0 1.0 4 4
+ 2.017 0 1 cbr 500 ------- 0 0.0 1.0 17 17
r 2.017 0 1 cbr 500 ------- 0 0.0 1.0 3 3
+ 2.018 0 1 cbr 500 ------- 0 0.0 1.0 18 18
+ 2.019 0 1 cbr 500 ------- 0 0.0 1.0 19 19
+ 2.02 0 1 cbr 500 ------- 0 0.0 1.0 20 20
- 2.02 0 1 cbr 500 ------- 0 0.0 1.0 5 5
+ 2.021 0 1 cbr 500 ------- 0 0.0 1.0 21 21
r 2.021 0 1 cbr 500 ------- 0 0.0 1.0 4 4
+ 2.022 0 1 cbr 500 ------- 0 0.0 1.0 22 22
+ 2.023 0 1 cbr 500 ------- 0 0.0 1.0 23 23
+ 2.024 0 1 cbr 500 ------- 0 0.0 1.0 24 24
- 2.024 0 1 cbr 500 ------- 0 0.0 1.0 6 6
+ 2.025 0 1 cbr 500 ------- 0 0.0 1.0 25 25
r 2.025 0 1 cbr 500 ------- 0 0.0 1.0 5 5
+ 2.026 0 1 cbr 500 ------- 0 0.0 1.0 26 26
+ 2.027 0 1 cbr 500 ------- 0 0.0 1.0 27 27
+ 2.028 0 1 cbr 500 ------- 0 0.0 1.0 28 28
- 2.028 0 1 cbr 500 ------- 0 0.0 1.0 7 7
+ 2.029 0 1 cbr 500 ------- 0 0.0 1.0 29 29
r 2.029 0 1 cbr 500 ------- 0 0.0 1.0 6 6
+ 2.03 0 1 cbr 500 ------- 0 0.0 1.0 30 30
+ 2.031 0 1 cbr 500 ------- 0 0.0 1.0 31 31
+ 2.032 0 1 cbr 500 ------- 0 0.0 1.0 32 32
- 2.032 0 1 cbr 500 ------- 0 0.0 1.0 8 8
+ 2.033 0 1 cbr 500 ------- 0 0.0 1.0 33 33
r 2.033 0 1 cbr 500 ------- 0 0.0 1.0 7 7
+ 2.034 0 1 cbr 500 ------- 0 0.0 1.0 34 34
+ 2.035 0 1 cbr 500 ------- 0 0.0 1.0 35 35
+ 2.036 0 1 cbr 500 ------- 0 0.0 1.0 36 36
- 2.036 0 1 cbr 500 ------- 0 0.0 1.0 9 9
+ 2.037 0 1 cbr 500 ------- 0 0.0 1.0 37 37
r 2.037 0 1 cbr 500 ------- 0 0.0 1.0 8 8
+ 2.038 0 1 cbr 500 ------- 0 0.0 1.0 38 38
+ 2.039 0 1 cbr 500 ------- 0 0.0 1.0 39 39
+ 2.04 0 1 cbr 500 ------- 0 0.0 1.0 40 40
- 2.04 0 1 cbr 500 ------- 0 0.0 1.0 10 10
+ 2.041 0 1 cbr 500 ------- 0 0.0 1.0 41 41
r 2.041 0 1 cbr 500 ------- 0 0.0 1.0 9 9
+ 2.042 0 1 cbr 500 ------- 0 0.0 1.0 42 42
+ 2.043 0 1 cbr 500 ------- 0 0.0 1.0 43 43
+ 2.044 0 1 cbr 500 ------- 0 0.0 1.0 44 44
- 2.044 0 1 cbr 500 ------- 0 0.0 1.0 11 11
+ 2.045 0 1 cbr 500 ------- 0 0.0 1.0 45 45
r 2.045 0 1 cbr 500 ------- 0 0.0 1.0 10 10
+ 2.046 0 1 cbr 500 ------- 0 0.0 1.0 46 46
+ 2.047 0 1 cbr 500 ------- 0 0.0 1.0 47 47
+ 2.048 0 1 cbr 500 ------- 0 0.0 1.0 48 48
- 2.048 0 1 cbr 500 ------- 0 0.0 1.0 12 12
+ 2.049 0 1 cbr 500 ------- 0 0.0 1.0 49 49
r 2.049 0 1 cbr 500 ------- 0 0.0 1.0 11 11
+ 2.05 0 1 cbr 500 ------- 0 0.0 1.0 50 50
+ 2.051 0 1 cbr 500 ------- 0 0.0 1.0 51 51
+ 2.052 0 1 cbr 500 ------- 0 0.0 1.0 52 52
- 2.052 0 1 cbr 500 ------- 0 0.0 1.0 13 13
+ 2.053 0 1 cbr 500 ------- 0 0.0 1.0 53 53
r 2.053 0 1 cbr 500 ------- 0 0.0 1.0 12 12
+ 2.054 0 1 cbr 500 ------- 0 0.0 1.0 54 54
+ 2.055 0 1 cbr 500 ------- 0 0.0 1.0 55 55
+ 2.056 0 1 cbr 500 ------- 0 0.0 1.0 56 56
- 2.056 0 1 cbr 500 ------- 0 0.0 1.0 14 14
+ 2.057 0 1 cbr 500 ------- 0 0.0 1.0 57 57
r 2.057 0 1 cbr 500 ------- 0 0.0 1.0 13 13
+ 2.058 0 1 cbr 500 ------- 0 0.0 1.0 58 58
+ 2.059 0 1 cbr 500 ------- 0 0.0 1.0 59 59
+ 2.06 0 1 cbr 500 ------- 0 0.0 1.0 60 60
- 2.06 0 1 cbr 500 ------- 0 0.0 1.0 15 15
+ 2.061 0 1 cbr 500 ------- 0 0.0 1.0 61 61
r 2.061 0 1 cbr 500 ------- 0 0.0 1.0 14 14
+ 2.062 0 1 cbr 500 ------- 0 0.0 1.0 62 62
+ 2.063 0 1 cbr 500 ------- 0 0.0 1.0 63 63
+ 2.064 0 1 cbr 500 ------- 0 0.0 1.0 64 64
- 2.064 0 1 cbr 500 ------- 0 0.0 1.0 16 16
+ 2.065 0 1 cbr 500 ------- 0 0.0 1.0 65 65
r 2.065 0 1 cbr 500 ------- 0 0.0 1.0 15 15
+ 2.066 0 1 cbr 500 ------- 0 0.0 1.0 66 66
d 2.066 0 1 cbr 500 ------- 0 0.0 1.0 66 66
+ 2.067 0 1 cbr 500 ------- 0 0.0 1.0 67 67
d 2.067 0 1 cbr 500 ------- 0 0.0 1.0 67 67
+ 2.068 0 1 cbr 500 ------- 0 0.0 1.0 68 68
d 2.068 0 1 cbr 500 ------- 0 0.0 1.0 68 68
- 2.068 0 1 cbr 500 ------- 0 0.0 1.0 17 17
+ 2.069 0 1 cbr 500 ------- 0 0.0 1.0 69 69
r 2.069 0 1 cbr 500 ------- 0 0.0 1.0 16 16
+ 2.07 0 1 cbr 500 ------- 0 0.0 1.0 70 70
d 2.07 0 1 cbr 500 ------- 0 0.0 1.0 70 70
+ 2.071 0 1 cbr 500 ------- 0 0.0 1.0 71 71
d 2.071 0 1 cbr 500 ------- 0 0.0 1.0 71 71
+ 2.072 0 1 cbr 500 ------- 0 0.0 1.0 72 72
d 2.072 0 1 cbr 500 ------- 0 0.0 1.0 72 72
- 2.072 0 1 cbr 500 ------- 0 0.0 1.0 18 18
+ 2.073 0 1 cbr 500 ------- 0 0.0 1.0 73 73
r 2.073 0 1 cbr 500 ------- 0 0.0 1.0 17 17
+ 2.074 0 1 cbr 500 ------- 0 0.0 1.0 74 74
d 2.074 0 1 cbr 500 ------- 0 0.0 1.0 74 74
+ 2.075 0 1 cbr 500 ------- 0 0.0 1.0 75 75
d 2.075 0 1 cbr 500 ------- 0 0.0 1.0 75 75
+ 2.076 0 1 cbr 500 ------- 0 0.0 1.0 76 76
d 2.076 0 1 cbr 500 ------- 0 0.0 1.0 76 76
- 2.076 0 1 cbr 500 ------- 0 0.0 1.0 19 19
+ 2.077 0 1 cbr 500 ------- 0 0.0 1.0 77 77
r 2.077 0 1 cbr 500 ------- 0 0.0 1.0 18 18
+ 2.078 0 1 cbr 500 ------- 0 0.0 1.0 78 78
d 2.078 0 1 cbr 500 ------- 0 0.0 1.0 78 78
+ 2.079 0 1 cbr 500 ------- 0 0.0 1.0 79 79
d 2.079 0 1 cbr 500 ------- 0 0.0 1.0 79 79
+ 2.08 0 1 cbr 500 ------- 0 0.0 1.0 80 80
d 2.08 0 1 cbr 500 ------- 0 0.0 1.0 80 80
- 2.08 0 1 cbr 500 ------- 0 0.0 1.0 20 20
+ 2.081 0 1 cbr 500 ------- 0 0.0 1.0 81 81
r 2.081 0 1 cbr 500 ------- 0 0.0 1.0 19 19
+ 2.082 0 1 cbr 500 ------- 0 0.0 1.0 82 82
d 2.082 0 1 cbr 500 ------- 0 0.0 1.0 82 82
+ 2.083 0 1 cbr 500 ------- 0 0.0 1.0 83 83
d 2.083 0 1 cbr 500 ------- 0 0.0 1.0 83 83
+ 2.084 0 1 cbr 500 ------- 0 0.0 1.0 84 84
d 2.084 0 1 cbr 500 ------- 0 0.0 1.0 84 84
- 2.084 0 1 cbr 500 ------- 0 0.0 1.0 21 21
+ 2.085 0 1 cbr 500 ------- 0 0.0 1.0 85 85
r 2.085 0 1 cbr 500 ------- 0 0.0 1.0 20 20
+ 2.086 0 1 cbr 500 ------- 0 0.0 1.0 86 86
d 2.086 0 1 cbr 500 ------- 0 0.0 1.0 86 86
+ 2.087 0 1 cbr 500 ------- 0 0.0 1.0 87 87
d 2.087 0 1 cbr 500 ------- 0 0.0 1.0 87 87
+ 2.088 0 1 cbr 500 ------- 0 0.0 1.0 88 88
d 2.088 0 1 cbr 500 ------- 0 0.0 1.0 88 88
- 2.088 0 1 cbr 500 ------- 0 0.0 1.0 22 22
+ 2.089 0 1 cbr 500 ------- 0 0.0 1.0 89 89
r 2.089 0 1 cbr 500 ------- 0 0.0 1.0 21 21
+ 2.09 0 1 cbr 500 ------- 0 0.0 1.0 90 90
d 2.09 0 1 cbr 500 ------- 0 0.0 1.0 90 90
+ 2.091 0 1 cbr 500 ------- 0 0.0 1.0 91 91
d 2.091 0 1 cbr 500 ------- 0 0.0 1.0 91 91
+ 2.092 0 1 cbr 500 ------- 0 0.0 1.0 92 92
d 2.092 0 1 cbr 500 ------- 0 0.0 1.0 92 92
- 2.092 0 1 cbr 500 ------- 0 0.0 1.0 23 23
+ 2.093 0 1 cbr 500 ------- 0 0.0 1.0 93 93
r 2.093 0 1 cbr 500 ------- 0 0.0 1.0 22 22
+ 2.094 0 1 cbr 500 ------- 0 0.0 1.0 94 94
d 2.094 0 1 cbr 500 ------- 0 0.0 1.0 94 94
+ 2.095 0 1 cbr 500 ------- 0 0.0 1.0 95 95
d 2.095 0 1 cbr 500 ------- 0 0.0 1.0 95 95
+ 2.096 0 1 cbr 500 ------- 0 0.0 1.0 96 96
d 2.096 0 1 cbr 500 ------- 0 0.0 1.0 96 96
- 2.096 0 1 cbr 500 ------- 0 0.0 1.0 24 24
+ 2.097 0 1 cbr 500 ------- 0 0.0 1.0 97 97
r 2.097 0 1 cbr 500 ------- 0 0.0 1.0 23 23
+ 2.098 0 1 cbr 500 ------- 0 0.0 1.0 98 98
d 2.098 0 1 cbr 500 ------- 0 0.0 1.0 98 98
+ 2.099 0 1 cbr 500 ------- 0 0.0 1.0 99 99
d 2.099 0 1 cbr 500 ------- 0 0.0 1.0 99 99
+ 2.1 0 1 cbr 500 ------- 0 0.0 1.0 100 100
d 2.1 0 1 cbr 500 ------- 0 0.0 1.0 100 100
- 2.1 0 1 cbr 500 ------- 0 0.0 1.0 25 25
+ 2.101 0 1 cbr 500 ------- 0 0.0 1.0 101 101
r 2.101 0 1 cbr 500 ------- 0 0.0 1.0 24 24
+ 2.102 0 1 cbr 500 ------- 0 0.0 1.0 102 102
d 2.102 0 1 cbr 500 ------- 0 0.0 1.0 102 102
+ 2.103 0 1 cbr 500 ------- 0 0.0 1.0 103 103
d 2.103 0 1 cbr 500 ------- 0 0.0 1.0 103 103
+ 2.104 0 1 cbr 500 ------- 0 0.0 1.0 104 104
d 2.104 0 1 cbr 500 ------- 0 0.0 1.0 104 104
- 2.104 0 1 cbr 500 ------- 0 0.0 1.0 26 26
+ 2.105 0 1 cbr 500 ------- 0 0.0 1.0 105 105
r 2.105 0 1 cbr 500 ------- 0 0.0 1.0 25 25
+ 2.106 0 1 cbr 500 ------- 0 0.0 1.0 106 106
d 2.106 0 1 cbr 500 ------- 0 0.0 1.0 106 106
+ 2.107 0 1 cbr 500 ------- 0 0.0 1.0 107 107
d 2.107 0 1 cbr 500 ------- 0 0.0 1.0 107 107
+ 2.108 0 1 cbr 500 ------- 0 0.0 1.0 108 108
d 2.108 0 1 cbr 500 ------- 0 0.0 1.0 108 108
- 2.108 0 1 cbr 500 ------- 0 0.0 1.0 27 27
+ 2.109 0 1 cbr 500 ------- 0 0.0 1.0 109 109
r 2.109 0 1 cbr 500 ------- 0 0.0 1.0 26 26
+ 2.11 0 1 cbr 500 ------- 0 0.0 1.0 110 110
d 2.11 0 1 cbr 500 ------- 0 0.0 1.0 110 110
+ 2.111 0 1 cbr 500 ------- 0 0.0 1.0 111 111
d 2.111 0 1 cbr 500 ------- 0 0.0 1.0 111 111
+ 2.112 0 1 cbr 500 ------- 0 0.0 1.0 112 112
d 2.112 0 1 cbr 500 ------- 0 0.0 1.0 112 112
- 2.112 0 1 cbr 500 ------- 0 0.0 1.0 28 28
+ 2.113 0 1 cbr 500 ------- 0 0.0 1.0 113 113
r 2.113 0 1 cbr 500 ------- 0 0.0 1.0 27 27
+ 2.114 0 1 cbr 500 ------- 0 0.0 1.0 114 114
d 2.114 0 1 cbr 500 ------- 0 0.0 1.0 114 114
+ 2.115 0 1 cbr 500 ------- 0 0.0 1.0 115 115
d 2.115 0 1 cbr 500 ------- 0 0.0 1.0 115 115
+ 2.116 0 1 cbr 500 ------- 0 0.0 1.0 116 116
d 2.116 0 1 cbr 500 ------- 0 0.0 1.0 116 116
- 2.116 0 1 cbr 500 ------- 0 0.0 1.0 29 29
+ 2.117 0 1 cbr 500 ------- 0 0.0 1.0 117 117
r 2.117 0 1 cbr 500 ------- 0 0.0 1.0 28 28
+ 2.118 0 1 cbr 500 ------- 0 0.0 1.0 118 118
d 2.118 0 1 cbr 500 ------- 0 0.0 1.0 118 118
+ 2.119 0 1 cbr 500 ------- 0 0.0 1.0 119 119
d 2.119 0 1 cbr 500 ------- 0 0.0 1.0 119 119
+ 2.12 0 1 cbr 500 ------- 0 0.0 1.0 120 120
d 2.12 0 1 cbr 500 ------- 0 0.0 1.0 120 120
- 2.12 0 1 cbr 500 ------- 0 0.0 1.0 30 30
+ 2.121 0 1 cbr 500 ------- 0 0.0 1.0 121 121
r 2.121 0 1 cbr 500 ------- 0 0.0 1.0 29 29
+ 2.122 0 1 cbr 500 ------- 0 0.0 1.0 122 122
d 2.122 0 1 cbr 500 ------- 0 0.0 1.0 122 122
+ 2.123 0 1 cbr 500 ------- 0 0.0 1.0 123 123
d 2.123 0 1 cbr 500 ------- 0 0.0 1.0 123 123
+ 2.124 0 1 cbr 500 ------- 0 0.0 1.0 124 124
d 2.124 0 1 cbr 500 ------- 0 0.0 1.0 124 124
- 2.124 0 1 cbr 500 ------- 0 0.0 1.0 31 31
+ 2.125 0 1 cbr 500 ------- 0 0.0 1.0 125 125
r 2.125 0 1 cbr 500 ------- 0 0.0 1.0 30 30
+ 2.126 0 1 cbr 500 ------- 0 0.0 1.0 126 126
d 2.126 0 1 cbr 500 ------- 0 0.0 1.0 126 126
+ 2.127 0 1 cbr 500 ------- 0 0.0 1.0 127 127
d 2.127 0 1 cbr 500 ------- 0 0.0 1.0 127 127
+ 2.128 0 1 cbr 500 ------- 0 0.0 1.0 128 128
d 2.128 0 1 cbr 500 ------- 0 0.0 1.0 128 128
- 2.128 0 1 cbr 500 ------- 0 0.0 1.0 32 32
+ 2.129 0 1 cbr 500 ------- 0 0.0 1.0 129 129
r 2.129 0 1 cbr 500 ------- 0 0.0 1.0 31 31
+ 2.13 0 1 cbr 500 ------- 0 0.0 1.0 130 130
d 2.13 0 1 cbr 500 ------- 0 0.0 1.0 130 130
+ 2.131 0 1 cbr 500 ------- 0 0.0 1.0 131 131
d 2.131 0 1 cbr 500 ------- 0 0.0 1.0 131 131
+ 2.132 0 1 cbr 500 ------- 0 0.0 1.0 132 132
d 2.132 0 1 cbr 500 ------- 0 0.0 1.0 132 132
- 2.132 0 1 cbr 500 ------- 0 0.0 1.0 33 33
+ 2.133 0 1 cbr 500 ------- 0 0.0 1.0 133 133
r 2.133 0 1 cbr 500 ------- 0 0.0 1.0 32 32
+ 2.134 0 1 cbr 500 ------- 0 0.0 1.0 134 134
d 2.134 0 1 cbr 500 ------- 0 0.0 1.0 134 134
+ 2.135 0 1 cbr 500 ------- 0 0.0 1.0 135 135
d 2.135 0 1 cbr 500 ------- 0 0.0 1.0 135 135
+ 2.136 0 1 cbr 500 ------- 0 0.0 1.0 136 136
d 2.136 0 1 cbr 500 ------- 0 0.0 1.0 136 136
- 2.136 0 1 cbr 500 ------- 0 0.0 1.0 34 34
+ 2.137 0 1 cbr 500 ------- 0 0.0 1.0 137 137
r 2.137 0 1 cbr 500 ------- 0 0.0 1.0 33 33
+ 2.138 0 1 cbr 500 ------- 0 0.0 1.0 138 138
d 2.138 0 1 cbr 500 ------- 0 0.0 1.0 138 138
+ 2.139 0 1 cbr 500 ------- 0 0.0 1.0 139 139
d 2.139 0 1 cbr 500 ------- 0 0.0 1.0 139 139
+ 2.14 0 1 cbr 500 ------- 0 0.0 1.0 140 140
d 2.14 0 1 cbr 500 ------- 0 0.0 1.0 140 140
- 2.14 0 1 cbr 500 ------- 0 0.0 1.0 35 35
+ 2.141 0 1 cbr 500 ------- 0 0.0 1.0 141 141
r 2.141 0 1 cbr 500 ------- 0 0.0 1.0 34 34
+ 2.142 0 1 cbr 500 ------- 0 0.0 1.0 142 142
d 2.142 0 1 cbr 500 ------- 0 0.0 1.0 142 142
+ 2.143 0 1 cbr 500 ------- 0 0.0 1.0 143 143
d 2.143 0 1 cbr 500 ------- 0 0.0 1.0 143 143
+ 2.144 0 1 cbr 500 ------- 0 0.0 1.0 144 144
d 2.144 0 1 cbr 500 ------- 0 0.0 1.0 144 144
- 2.144 0 1 cbr 500 ------- 0 0.0 1.0 36 36
+ 2.145 0 1 cbr 500 ------- 0 0.0 1.0 145 145
r 2.145 0 1 cbr 500 ------- 0 0.0 1.0 35 35
+ 2.146 0 1 cbr 500 ------- 0 0.0 1.0 146 146
d 2.146 0 1 cbr 500 ------- 0 0.0 1.0 146 146
+ 2.147 0 1 cbr 500 ------- 0 0.0 1.0 147 147
d 2.147 0 1 cbr 500 ------- 0 0.0 1.0 147 147
+ 2.148 0 1 cbr 500 ------- 0 0.0 1.0 148 148
d 2.148 0 1 cbr 500 ------- 0 0.0 1.0 148 148
- 2.148 0 1 cbr 500 ------- 0 0.0 1.0 37 37
+ 2.149 0 1 cbr 500 ------- 0 0.0 1.0 149 149
r 2.149 0 1 cbr 500 ------- 0 0.0 1.0 36 36
+ 2.15 0 1 cbr 500 ------- 0 0.0 1.0 150 150
d 2.15 0 1 cbr 500 ------- 0 0.0 1.0 150 150
+ 2.151 0 1 cbr 500 ------- 0 0.0 1.0 151 151
d 2.151 0 1 cbr 500 ------- 0 0.0 1.0 151 151
+ 2.152 0 1 cbr 500 ------- 0 0.0 1.0 152 152
d 2.152 0 1 cbr 500 ------- 0 0.0 1.0 152 152
- 2.152 0 1 cbr 500 ------- 0 0.0 1.0 38 38
+ 2.153 0 1 cbr 500 ------- 0 0.0 1.0 153 153
r 2.153 0 1 cbr 500 ------- 0 0.0 1.0 37 37
+ 2.154 0 1 cbr 500 ------- 0 0.0 1.0 154 154
d 2.154 0 1 cbr 500 ------- 0 0.0 1.0 154 154
+ 2.155 0 1 cbr 500 ------- 0 0.0 1.0 155 155
d 2.155 0 1 cbr 500 ------- 0 0.0 1.0 155 155
+ 2.156 0 1 cbr 500 ------- 0 0.0 1.0 156 156
d 2.156 0 1 cbr 500 ------- 0 0.0 1.0 156 156
- 2.156 0 1 cbr 500 ------- 0 0.0 1.0 39 39
+ 2.157 0 1 cbr 500 ------- 0 0.0 1.0 157 157
r 2.157 0 1 cbr 500 ------- 0 0.0 1.0 38 38
+ 2.158 0 1 cbr 500 ------- 0 0.0 1.0 158 158
d 2.158 0 1 cbr 500 ------- 0 0.0 1.0 158 158
+ 2.159 0 1 cbr 500 ------- 0 0.0 1.0 159 159
d 2.159 0 1 cbr 500 ------- 0 0.0 1.0 159 159
+ 2.16 0 1 cbr 500 ------- 0 0.0 1.0 160 160
d 2.16 0 1 cbr 500 ------- 0 0.0 1.0 160 160
- 2.16 0 1 cbr 500 ------- 0 0.0 1.0 40 40
+ 2.161 0 1 cbr 500 ------- 0 0.0 1.0 161 161
r 2.161 0 1 cbr 500 ------- 0 0.0 1.0 39 39
+ 2.162 0 1 cbr 500 ------- 0 0.0 1.0 162 162
d 2.162 0 1 cbr 500 ------- 0 0.0 1.0 162 162
+ 2.163 0 1 cbr 500 ------- 0 0.0 1.0 163 163
d 2.163 0 1 cbr 500 ------- 0 0.0 1.0 163 163
+ 2.164 0 1 cbr 500 ------- 0 0.0 1.0 164 164
d 2.164 0 1 cbr 500 ------- 0 0.0 1.0 164 164
- 2.164 0 1 cbr 500 ------- 0 0.0 1.0 41 41
+ 2.165 0 1 cbr 500 ------- 0 0.0 1.0 165 165
r 2.165 0 1 cbr 500 ------- 0 0.0 1.0 40 40
+ 2.166 0 1 cbr 500 ------- 0 0.0 1.0 166 166
d 2.166 0 1 cbr 500 ------- 0 0.0 1.0 166 166
+ 2.167 0 1 cbr 500 ------- 0 0.0 1.0 167 167
d 2.167 0 1 cbr 500 ------- 0 0.0 1.0 167 167
+ 2.168 0 1 cbr 500 ------- 0 0.0 1.0 168 168
d 2.168 0 1 cbr 500 ------- 0 0.0 1.0 168 168
- 2.168 0 1 cbr 500 ------- 0 0.0 1.0 42 42
+ 2.169 0 1 cbr 500 ------- 0 0.0 1.0 169 169
r 2.169 0 1 cbr 500 ------- 0 0.0 1.0 41 41
+ 2.17 0 1 cbr 500 ------- 0 0.0 1.0 170 170
d 2.17 0 1 cbr 500 ------- 0 0.0 1.0 170 170
+ 2.171 0 1 cbr 500 ------- 0 0.0 1.0 171 171
d 2.171 0 1 cbr 500 ------- 0 0.0 1.0 171 171
+ 2.172 0 1 cbr 500 ------- 0 0.0 1.0 172 172
d 2.172 0 1 cbr 500 ------- 0 0.0 1.0 172 172
- 2.172 0 1 cbr 500 ------- 0 0.0 1.0 43 43
+ 2.173 0 1 cbr 500 ------- 0 0.0 1.0 173 173
r 2.173 0 1 cbr 500 ------- 0 0.0 1.0 42 42
+ 2.174 0 1 cbr 500 ------- 0 0.0 1.0 174 174
d 2.174 0 1 cbr 500 ------- 0 0.0 1.0 174 174
+ 2.175 0 1 cbr 500 ------- 0 0.0 1.0 175 175
d 2.175 0 1 cbr 500 ------- 0 0.0 1.0 175 175
+ 2.176 0 1 cbr 500 ------- 0 0.0 1.0 176 176
d 2.176 0 1 cbr 500 ------- 0 0.0 1.0 176 176
- 2.176 0 1 cbr 500 ------- 0 0.0 1.0 44 44
+ 2.177 0 1 cbr 500 ------- 0 0.0 1.0 177 177
r 2.177 0 1 cbr 500 ------- 0 0.0 1.0 43 43
+ 2.178 0 1 cbr 500 ------- 0 0.0 1.0 178 178
d 2.178 0 1 cbr 500 ------- 0 0.0 1.0 178 178
+ 2.179 0 1 cbr 500 ------- 0 0.0 1.0 179 179
d 2.179 0 1 cbr 500 ------- 0 0.0 1.0 179 179
+ 2.18 0 1 cbr 500 ------- 0 0.0 1.0 180 180
d 2.18 0 1 cbr 500 ------- 0 0.0 1.0 180 180
- 2.18 0 1 cbr 500 ------- 0 0.0 1.0 45 45
+ 2.181 0 1 cbr 500 ------- 0 0.0 1.0 181 181
r 2.181 0 1 cbr 500 ------- 0 0.0 1.0 44 44
+ 2.182 0 1 cbr 500 ------- 0 0.0 1.0 182 182
d 2.182 0 1 cbr 500 ------- 0 0.0 1.0 182 182
+ 2.183 0 1 cbr 500 ------- 0 0.0 1.0 183 183
d 2.183 0 1 cbr 500 ------- 0 0.0 1.0 183 183
+ 2.184 0 1 cbr 500 ------- 0 0.0 1.0 184 184
d 2.184 0 1 cbr 500 ------- 0 0.0 1.0 184 184
- 2.184 0 1 cbr 500 ------- 0 0.0 1.0 46 46
+ 2.185 0 1 cbr 500 ------- 0 0.0 1.0 185 185
r 2.185 0 1 cbr 500 ------- 0 0.0 1.0 45 45
+ 2.186 0 1 cbr 500 ------- 0 0.0 1.0 186 186
d 2.186 0 1 cbr 500 ------- 0 0.0 1.0 186 186
+ 2.187 0 1 cbr 500 ------- 0 0.0 1.0 187 187
d 2.187 0 1 cbr 500 ------- 0 0.0 1.0 187 187
+ 2.188 0 1 cbr 500 ------- 0 0.0 1.0 188 188
d 2.188 0 1 cbr 500 ------- 0 0.0 1.0 188 188
- 2.188 0 1 cbr 500 ------- 0 0.0 1.0 47 47
+ 2.189 0 1 cbr 500 ------- 0 0.0 1.0 189 189
r 2.189 0 1 cbr 500 ------- 0 0.0 1.0 46 46
+ 2.19 0 1 cbr 500 ------- 0 0.0 1.0 190 190
d 2.19 0 1 cbr 500 ------- 0 0.0 1.0 190 190
+ 2.191 0 1 cbr 500 ------- 0 0.0 1.0 191 191
d 2.191 0 1 cbr 500 ------- 0 0.0 1.0 191 191
+ 2.192 0 1 cbr 500 ------- 0 0.0 1.0 192 192
d 2.192 0 1 cbr 500 ------- 0 0.0 1.0 192 192
- 2.192 0 1 cbr 500 ------- 0 0.0 1.0 48 48
+ 2.193 0 1 cbr 500 ------- 0 0.0 1.0 193 193
r 2.193 0 1 cbr 500 ------- 0 0.0 1.0 47 47
+ 2.194 0 1 cbr 500 ------- 0 0.0 1.0 194 194
d 2.194 0 1 cbr 500 ------- 0 0.0 1.0 194 194
+ 2.195 0 1 cbr 500 ------- 0 0.0 1.0 195 195
d 2.195 0 1 cbr 500 ------- 0 0.0 1.0 195 195
+ 2.196 0 1 cbr 500 ------- 0 0.0 1.0 196 196
d 2.196 0 1 cbr 500 ------- 0 0.0 1.0 196 196
- 2.196 0 1 cbr 500 ------- 0 0.0 1.0 49 49
+ 2.197 0 1 cbr 500 ------- 0 0.0 1.0 197 197
r 2.197 0 1 cbr 500 ------- 0 0.0 1.0 48 48
+ 2.198 0 1 cbr 500 ------- 0 0.0 1.0 198 198
d 2.198 0 1 cbr 500 ------- 0 0.0 1.0 198 198
+ 2.199 0 1 cbr 500 ------- 0 0.0 1.0 199 199
d 2.199 0 1 cbr 500 ------- 0 0.0 1.0 199 199
+ 2.2 0 1 cbr 500 ------- 0 0.0 1.0 200 200
d 2.2 0 1 cbr 500 ------- 0 0.0 1.0 200 200
- 2.2 0 1 cbr 500 ------- 0 0.0 1.0 50 50
+ 2.201 0 1 cbr 500 ------- 0 0.0 1.0 201 201
r 2.201 0 1 cbr 500 ------- 0 0.0 1.0 49 49
+ 2.202 0 1 cbr 500 ------- 0 0.0 1.0 202 202
d 2.202 0 1 cbr 500 ------- 0 0.0 1.0 202 202
+ 2.203 0 1 cbr 500 ------- 0 0.0 1.0 203 203
d 2.203 0 1 cbr 500 ------- 0 0.0 1.0 203 203
+ 2.204 0 1 cbr 500 ------- 0 0.0 1.0 204 204
d 2.204 0 1 cbr 500 ------- 0 0.0 1.0 204 204
- 2.204 0 1 cbr 500 ------- 0 0.0 1.0 51 51
+ 2.205 0 1 cbr 500 ------- 0 0.0 1.0 205 205
r 2.205 0 1 cbr 500 ------- 0 0.0 1.0 50 50
+ 2.206 0 1 cbr 500 ------- 0 0.0 1.0 206 206
d 2.206 0 1 cbr 500 ------- 0 0.0 1.0 206 206
+ 2.207 0 1 cbr 500 ------- 0 0.0 1.0 207 207
d 2.207 0 1 cbr 500 ------- 0 0.0 1.0 207 207
+ 2.208 0 1 cbr 500 ------- 0 0.0 1.0 208 208
d 2.208 0 1 cbr 500 ------- 0 0.0 1.0 208 208
- 2.208 0 1 cbr 500 ------- 0 0.0 1.0 52 52
+ 2.209 0 1 cbr 500 ------- 0 0.0 1.0 209 209
r 2.209 0 1 cbr 500 ------- 0 0.0 1.0 51 51
+ 2.21 0 1 cbr 500 ------- 0 0.0 1.0 210 210
d 2.21 0 1 cbr 500 ------- 0 0.0 1.0 210 210
+ 2.211 0 1 cbr 500 ------- 0 0.0 1.0 211 211
d 2.211 0 1 cbr 500 ------- 0 0.0 1.0 211 211
+ 2.212 0 1 cbr 500 ------- 0 0.0 1.0 212 212
d 2.212 0 1 cbr 500 ------- 0 0.0 1.0 212 212
- 2.212 0 1 cbr 500 ------- 0 0.0 1.0 53 53
+ 2.213 0 1 cbr 500 ------- 0 0.0 1.0 213 213
r 2.213 0 1 cbr 500 ------- 0 0.0 1.0 52 52
+ 2.214 0 1 cbr 500 ------- 0 0.0 1.0 214 214
d 2.214 0 1 cbr 500 ------- 0 0.0 1.0 214 214
+ 2.215 0 1 cbr 500 ------- 0 0.0 1.0 215 215
d 2.215 0 1 cbr 500 ------- 0 0.0 1.0 215 215
+ 2.216 0 1 cbr 500 ------- 0 0.0 1.0 216 216
d 2.216 0 1 cbr 500 ------- 0 0.0 1.0 216 216
- 2.216 0 1 cbr 500 ------- 0 0.0 1.0 54 54
+ 2.217 0 1 cbr 500 ------- 0 0.0 1.0 217 217
r 2.217 0 1 cbr 500 ------- 0 0.0 1.0 53 53
+ 2.218 0 1 cbr 500 ------- 0 0.0 1.0 218 218
d 2.218 0 1 cbr 500 ------- 0 0.0 1.0 218 218
+ 2.219 0 1 cbr 500 ------- 0 0.0 1.0 219 219
d 2.219 0 1 cbr 500 ------- 0 0.0 1.0 219 219
+ 2.22 0 1 cbr 500 ------- 0 0.0 1.0 220 220
d 2.22 0 1 cbr 500 ------- 0 0.0 1.0 220 220
- 2.22 0 1 cbr 500 ------- 0 0.0 1.0 55 55
+ 2.221 0 1 cbr 500 ------- 0 0.0 1.0 221 221
r 2.221 0 1 cbr 500 ------- 0 0.0 1.0 54 54
+ 2.222 0 1 cbr 500 ------- 0 0.0 1.0 222 222
d 2.222 0 1 cbr 500 ------- 0 0.0 1.0 222 222
+ 2.223 0 1 cbr 500 ------- 0 0.0 1.0 223 223
d 2.223 0 1 cbr 500 ------- 0 0.0 1.0 223 223
+ 2.224 0 1 cbr 500 ------- 0 0.0 1.0 224 224
d 2.224 0 1 cbr 500 ------- 0 0.0 1.0 224 224
- 2.224 0 1 cbr 500 ------- 0 0.0 1.0 56 56
+ 2.225 0 1 cbr 500 ------- 0 0.0 1.0 225 225
r 2.225 0 1 cbr 500 ------- 0 0.0 1.0 55 55
+ 2.226 0 1 cbr 500 ------- 0 0.0 1.0 226 226
d 2.226 0 1 cbr 500 ------- 0 0.0 1.0 226 226
+ 2.227 0 1 cbr 500 ------- 0 0.0 1.0 227 227
d 2.227 0 1 cbr 500 ------- 0 0.0 1.0 227 227
+ 2.228 0 1 cbr 500 ------- 0 0.0 1.0 228 228
d 2.228 0 1 cbr 500 ------- 0 0.0 1.0 228 228
- 2.228 0 1 cbr 500 ------- 0 0.0 1.0 57 57
+ 2.229 0 1 cbr 500 ------- 0 0.0 1.0 229 229
r 2.229 0 1 cbr 500 ------- 0 0.0 1.0 56 56
+ 2.23 0 1 cbr 500 ------- 0 0.0 1.0 230 230
d 2.23 0 1 cbr 500 ------- 0 0.0 1.0 230 230
+ 2.231 0 1 cbr 500 ------- 0 0.0 1.0 231 231
d 2.231 0 1 cbr 500 ------- 0 0.0 1.0 231 231
+ 2.232 0 1 cbr 500 ------- 0 0.0 1.0 232 232
d 2.232 0 1 cbr 500 ------- 0 0.0 1.0 232 232
- 2.232 0 1 cbr 500 ------- 0 0.0 1.0 58 58
+ 2.233 0 1 cbr 500 ------- 0 0.0 1.0 233 233
r 2.233 0 1 cbr 500 ------- 0 0.0 1.0 57 57
+ 2.234 0 1 cbr 500 ------- 0 0.0 1.0 234 234
d 2.234 0 1 cbr 500 ------- 0 0.0 1.0 234 234
+ 2.235 0 1 cbr 500 ------- 0 0.0 1.0 235 235
d 2.235 0 1 cbr 500 ------- 0 0.0 1.0 235 235
+ 2.236 0 1 cbr 500 ------- 0 0.0 1.0 236 236
d 2.236 0 1 cbr 500 ------- 0 0.0 1.0 236 236
- 2.236 0 1 cbr 500 ------- 0 0.0 1.0 59 59
+ 2.237 0 1 cbr 500 ------- 0 0.0 1.0 237 237
r 2.237 0 1 cbr 500 ------- 0 0.0 1.0 58 58
+ 2.238 0 1 cbr 500 ------- 0 0.0 1.0 238 238
d 2.238 0 1 cbr 500 ------- 0 0.0 1.0 238 238
+ 2.239 0 1 cbr 500 ------- 0 0.0 1.0 239 239
d 2.239 0 1 cbr 500 ------- 0 0.0 1.0 239 239
+ 2.24 0 1 cbr 500 ------- 0 0.0 1.0 240 240
d 2.24 0 1 cbr 500 ------- 0 0.0 1.0 240 240
- 2.24 0 1 cbr 500 ------- 0 0.0 1.0 60 60
+ 2.241 0 1 cbr 500 ------- 0 0.0 1.0 241 241
r 2.241 0 1 cbr 500 ------- 0 0.0 1.0 59 59
+ 2.242 0 1 cbr 500 ------- 0 0.0 1.0 242 242
d 2.242 0 1 cbr 500 ------- 0 0.0 1.0 242 242
+ 2.243 0 1 cbr 500 ------- 0 0.0 1.0 243 243
d 2.243 0 1 cbr 500 ------- 0 0.0 1.0 243 243
+ 2.244 0 1 cbr 500 ------- 0 0.0 1.0 244 244
d 2.244 0 1 cbr 500 ------- 0 0.0 1.0 244 244
- 2.244 0 1 cbr 500 ------- 0 0.0 1.0 61 61
+ 2.245 0 1 cbr 500 ------- 0 0.0 1.0 245 245
r 2.245 0 1 cbr 500 ------- 0 0.0 1.0 60 60
+ 2.246 0 1 cbr 500 ------- 0 0.0 1.0 246 246
d 2.246 0 1 cbr 500 ------- 0 0.0 1.0 246 246
+ 2.247 0 1 cbr 500 ------- 0 0.0 1.0 247 247
d 2.247 0 1 cbr 500 ------- 0 0.0 1.0 247 247
+ 2.248 0 1 cbr 500 ------- 0 0.0 1.0 248 248
d 2.248 0 1 cbr 500 ------- 0 0.0 1.0 248 248
- 2.248 0 1 cbr 500 ------- 0 0.0 1.0 62 62
+ 2.249 0 1 cbr 500 ------- 0 0.0 1.0 249 249
r 2.249 0 1 cbr 500 ------- 0 0.0 1.0 61 61
+ 2.25 0 1 cbr 500 ------- 0 0.0 1.0 250 250
d 2.25 0 1 cbr 500 ------- 0 0.0 1.0 250 250
+ 2.251 0 1 cbr 500 ------- 0 0.0 1.0 251 251
d 2.251 0 1 cbr 500 ------- 0 0.0 1.0 251 251
+ 2.252 0 1 cbr 500 ------- 0 0.0 1.0 252 252
d 2.252 0 1 cbr 500 ------- 0 0.0 1.0 252 252
- 2.252 0 1 cbr 500 ------- 0 0.0 1.0 63 63
+ 2.253 0 1 cbr 500 ------- 0 0.0 1.0 253 253
r 2.253 0 1 cbr 500 ------- 0 0.0 1.0 62 62
+ 2.254 0 1 cbr 500 ------- 0 0.0 1.0 254 254
d 2.254 0 1 cbr 500 ------- 0 0.0 1.0 254 254
+ 2.255 0 1 cbr 500 ------- 0 0.0 1.0 255 255
d 2.255 0 1 cbr 500 ------- 0 0.0 1.0 255 255
+ 2.256 0 1 cbr 500 ------- 0 0.0 1.0 256 256
d 2.256 0 1 cbr 500 ------- 0 0.0 1.0 256 256
- 2.256 0 1 cbr 500 ------- 0 0.0 1.0 64 64
+ 2.257 0 1 cbr 500 ------- 0 0.0 1.0 257 257
r 2.257 0 1 cbr 500 ------- 0 0.0 1.0 63 63
+ 2.258 0 1 cbr 500 ------- 0 0.0 1.0 258 258
d 2.258 0 1 cbr 500 ------- 0 0.0 1.0 258 258
+ 2.259 0 1 cbr 500 ------- 0 0.0 1.0 259 259
d 2.259 0 1 cbr 500 ------- 0 0.0 1.0 259 259
+ 2.26 0 1 cbr 500 ------- 0 0.0 1.0 260 260
d 2.26 0 1 cbr 500 ------- 0 0.0 1.0 260 260
- 2.26 0 1 cbr 500 ------- 0 0.0 1.0 65 65
+ 2.261 0 1 cbr 500 ------- 0 0.0 1.0 261 261
r 2.261 0 1 cbr 500 ------- 0 0.0 1.0 64 64
+ 2.262 0 1 cbr 500 ------- 0 0.0 1.0 262 262
d 2.262 0 1 cbr 500 ------- 0 0.0 1.0 262 262
+ 2.263 0 1 cbr 500 ------- 0 0.0 1.0 263 263
d 2.263 0 1 cbr 500 ------- 0 0.0 1.0 263 263
+ 2.264 0 1 cbr 500 ------- 0 0.0 1.0 264 264
d 2.264 0 1 cbr 500 ------- 0 0.0 1.0 264 264
- 2.264 0 1 cbr 500 ------- 0 0.0 1.0 69 69
+ 2.265 0 1 cbr 500 ------- 0 0.0 1.0 265 265
r 2.265 0 1 cbr 500 ------- 0 0.0 1.0 65 65
+ 2.266 0 1 cbr 500 ------- 0 0.0 1.0 266 266
d 2.266 0 1 cbr 500 ------- 0 0.0 1.0 266 266
+ 2.267 0 1 cbr 500 ------- 0 0.0 1.0 267 267
d 2.267 0 1 cbr 500 ------- 0 0.0 1.0 267 267
+ 2.268 0 1 cbr 500 ------- 0 0.0 1.0 268 268
d 2.268 0 1 cbr 500 ------- 0 0.0 1.0 268 268
- 2.268 0 1 cbr 500 ------- 0 0.0 1.0 73 73
+ 2.269 0 1 cbr 500 ------- 0 0.0 1.0 269 269
r 2.269 0 1 cbr 500 ------- 0 0.0 1.0 69 69
+ 2.27 0 1 cbr 500 ------- 0 0.0 1.0 270 270
d 2.27 0 1 cbr 500 ------- 0 0.0 1.0 270 270
+ 2.271 0 1 cbr 500 ------- 0 0.0 1.0 271 271
d 2.271 0 1 cbr 500 ------- 0 0.0 1.0 271 271
+ 2.272 0 1 cbr 500 ------- 0 0.0 1.0 272 272
d 2.272 0 1 cbr 500 ------- 0 0.0 1.0 272 272
- 2.272 0 1 cbr 500 ------- 0 0.0 1.0 77 77
+ 2.273 0 1 cbr 500 ------- 0 0.0 1.0 273 273
r 2.273 0 1 cbr 500 ------- 0 0.0 1.0 73 73
+ 2.274 0 1 cbr 500 ------- 0 0.0 1.0 274 274
d 2.274 0 1 cbr 500 ------- 0 0.0 1.0 274 274
+ 2.275 0 1 cbr 500 ------- 0 0.0 1.0 275 275
d 2.275 0 1 cbr 500 ------- 0 0.0 1.0 275 275
+ 2.276 0 1 cbr 500 ------- 0 0.0 1.0 276 276
d 2.276 0 1 cbr 500 ------- 0 0.0 1.0 276 276
- 2.276 0 1 cbr 500 ------- 0 0.0 1.0 81 81
+ 2.277 0 1 cbr 500 ------- 0 0.0 1.0 277 277
r 2.277 0 1 cbr 500 ------- 0 0.0 1.0 77 77
+ 2.278 0 1 cbr 500 ------- 0 0.0 1.0 278 278
d 2.278 0 1 cbr 500 ------- 0 0.0 1.0 278 278
+ 2.279 0 1 cbr 500 ------- 0 0.0 1.0 279 279
d 2.279 0 1 cbr 500 ------- 0 0.0 1.0 279 279
+ 2.28 0 1 cbr 500 ------- 0 0.0 1.0 280 280
d 2.28 0 1 cbr 500 ------- 0 0.0 1.0 280 280
- 2.28 0 1 cbr 500 ------- 0 0.0 1.0 85 85
+ 2.281 0 1 cbr 500 ------- 0 0.0 1.0 281 281
r 2.281 0 1 cbr 500 ------- 0 0.0 1.0 81 81
+ 2.282 0 1 cbr 500 ------- 0 0.0 1.0 282 282
d 2.282 0 1 cbr 500 ------- 0 0.0 1.0 282 282
+ 2.283 0 1 cbr 500 ------- 0 0.0 1.0 283 283
d 2.283 0 1 cbr 500 ------- 0 0.0 1.0 283 283
+ 2.284 0 1 cbr 500 ------- 0 0.0 1.0 284 284
d 2.284 0 1 cbr 500 ------- 0 0.0 1.0 284 284
- 2.284 0 1 cbr 500 ------- 0 0.0 1.0 89 89
+ 2.285 0 1 cbr 500 ------- 0 0.0 1.0 285 285
r 2.285 0 1 cbr 500 ------- 0 0.0 1.0 85 85
+ 2.286 0 1 cbr 500 ------- 0 0.0 1.0 286 286
d 2.286 0 1 cbr 500 ------- 0 0.0 1.0 286 286
+ 2.287 0 1 cbr 500 ------- 0 0.0 1.0 287 287
d 2.287 0 1 cbr 500 ------- 0 0.0 1.0 287 287
+ 2.288 0 1 cbr 500 ------- 0 0.0 1.0 288 288
d 2.288 0 1 cbr 500 ------- 0 0.0 1.0 288 288
- 2.288 0 1 cbr 500 ------- 0 0.0 1.0 93 93
+ 2.289 0 1 cbr 500 ------- 0 0.0 1.0 289 289
r 2.289 0 1 cbr 500 ------- 0 0.0 1.0 89 89
+ 2.29 0 1 cbr 500 ------- 0 0.0 1.0 290 290
d 2.29 0 1 cbr 500 ------- 0 0.0 1.0 290 290
+ 2.291 0 1 cbr 500 ------- 0 0.0 1.0 291 291
d 2.291 0 1 cbr 500 ------- 0 0.0 1.0 291 291
+ 2.292 0 1 cbr 500 ------- 0 0.0 1.0 292 292
d 2.292 0 1 cbr 500 ------- 0 0.0 1.0 292 292
- 2.292 0 1 cbr 500 ------- 0 0.0 1.0 97 97
+ 2.293 0 1 cbr 500 ------- 0 0.0 1.0 293 293
r 2.293 0 1 cbr 500 ------- 0 0.0 1.0 93 93
+ 2.294 0 1 cbr 500 ------- 0 0.0 1.0 294 294
d 2.294 0 1 cbr 500 ------- 0 0.0 1.0 294 294
+ 2.295 0 1 cbr 500 ------- 0 0.0 1.0 295 295
d 2.295 0 1 cbr 500 ------- 0 0.0 1.0 295 295
+ 2.296 0 1 cbr 500 ------- 0 0.0 1.0 296 296
d 2.296 0 1 cbr 500 ------- 0 0.0 1.0 296 296
- 2.296 0 1 cbr 500 ------- 0 0.0 1.0 101 101
+ 2.297 0 1 cbr 500 ------- 0 0.0 1.0 297 297
r 2.297 0 1 cbr 500 ------- 0 0.0 1.0 97 97
+ 2.298 0 1 cbr 500 ------- 0 0.0 1.0 298 298
d 2.298 0 1 cbr 500 ------- 0 0.0 1.0 298 298
+ 2.299 0 1 cbr 500 ------- 0 0.0 1.0 299 299
d 2.299 0 1 cbr 500 ------- 0 0.0 1.0 299 299
+ 2.3 0 1 cbr 500 ------- 0 0.0 1.0 300 300
d 2.3 0 1 cbr 500 ------- 0 0.0 1.0 300 300
- 2.3 0 1 cbr 500 ------- 0 0.0 1.0 105 105
+ 2.301 0 1 cbr 500 ------- 0 0.0 1.0 301 301
r 2.301 0 1 cbr 500 ------- 0 0.0 1.0 101 101
+ 2.302 0 1 cbr 500 ------- 0 0.0 1.0 302 302
d 2.302 0 1 cbr 500 ------- 0 0.0 1.0 302 302
+ 2.303 0 1 cbr 500 ------- 0 0.0 1.0 303 303
d 2.303 0 1 cbr 500 ------- 0 0.0 1.0 303 303
+ 2.304 0 1 cbr 500 ------- 0 0.0 1.0 304 304
d 2.304 0 1 cbr 500 ------- 0 0.0 1.0 304 304
- 2.304 0 1 cbr 500 ------- 0 0.0 1.0 109 109
+ 2.305 0 1 cbr 500 ------- 0 0.0 1.0 305 305
r 2.305 0 1 cbr 500 ------- 0 0.0 1.0 105 105
+ 2.306 0 1 cbr 500 ------- 0 0.0 1.0 306 306
d 2.306 0 1 cbr 500 ------- 0 0.0 1.0 306 306
+ 2.307 0 1 cbr 500 ------- 0 0.0 1.0 307 307
d 2.307 0 1 cbr 500 ------- 0 0.0 1.0 307 307
+ 2.308 0 1 cbr 500 ------- 0 0.0 1.0 308 308
d 2.308 0 1 cbr 500 ------- 0 0.0 1.0 308 308
- 2.308 0 1 cbr 500 ------- 0 0.0 1.0 113 113
+ 2.309 0 1 cbr 500 ------- 0 0.0 1.0 309 309
r 2.309 0 1 cbr 500 ------- 0 0.0 1.0 109 109
+ 2.31 0 1 cbr 500 ------- 0 0.0 1.0 310 310
d 2.31 0 1 cbr 500 ------- 0 0.0 1.0 310 310
+ 2.311 0 1 cbr 500 ------- 0 0.0 1.0 311 311
d 2.311 0 1 cbr 500 ------- 0 0.0 1.0 311 311
+ 2.312 0 1 cbr 500 ------- 0 0.0 1.0 312 312
d 2.312 0 1 cbr 500 ------- 0 0.0 1.0 312 312
- 2.312 0 1 cbr 500 ------- 0 0.0 1.0 117 117
+ 2.313 0 1 cbr 500 ------- 0 0.0 1.0 313 313
r 2.313 0 1 cbr 500 ------- 0 0.0 1.0 113 113
+ 2.314 0 1 cbr 500 ------- 0 0.0 1.0 314 314
d 2.314 0 1 cbr 500 ------- 0 0.0 1.0 314 314
+ 2.315 0 1 cbr 500 ------- 0 0.0 1.0 315 315
d 2.315 0 1 cbr 500 ------- 0 0.0 1.0 315 315
+ 2.316 0 1 cbr 500 ------- 0 0.0 1.0 316 316
d 2.316 0 1 cbr 500 ------- 0 0.0 1.0 316 316
- 2.316 0 1 cbr 500 ------- 0 0.0 1.0 121 121
+ 2.317 0 1 cbr 500 ------- 0 0.0 1.0 317 317
r 2.317 0 1 cbr 500 ------- 0 0.0 1.0 117 117
+ 2.318 0 1 cbr 500 ------- 0 0.0 1.0 318 318