+ 1 0 1 cbr 150 ------- 0 0.0 1073741824.-1 0 0
- 1 0 1 cbr 150 ------- 0 0.0 1073741824.-1 0 0
+ 1 0 3 cbr 150 ------- 0 0.0 1073741824.-1 0 0
- 1 0 3 cbr 150 ------- 0 0.0 1073741824.-1 0 0
+ 1.001 0 1 cbr 150 ------- 0 0.0 1073741824.-1 1 1
- 1.001 0 1 cbr 150 ------- 0 0.0 1073741824.-1 1 1
+ 1.001 0 3 cbr 150 ------- 0 0.0 1073741824.-1 1 1
- 1.001 0 3 cbr 150 ------- 0 0.0 1073741824.-1 1 1
+ 1.002 0 1 cbr 150 ------- 0 0.0 1073741824.-1 2 2
- 1.002 0 1 cbr 150 ------- 0 0.0 1073741824.-1 2 2
+ 1.002 0 3 cbr 150 ------- 0 0.0 1073741824.-1 2 2
- 1.002 0 3 cbr 150 ------- 0 0.0 1073741824.-1 2 2
+ 1.003 0 1 cbr 150 ------- 0 0.0 1073741824.-1 3 3
- 1.003 0 1 cbr 150 ------- 0 0.0 1073741824.-1 3 3
+ 1.003 0 3 cbr 150 ------- 0 0.0 1073741824.-1 3 3
- 1.003 0 3 cbr 150 ------- 0 0.0 1073741824.-1 3 3
+ 1.004 0 1 cbr 150 ------- 0 0.0 1073741824.-1 4 4
- 1.004 0 1 cbr 150 ------- 0 0.0 1073741824.-1 4 4
+ 1.004 0 3 cbr 150 ------- 0 0.0 1073741824.-1 4 4
- 1.004 0 3 cbr 150 ------- 0 0.0 1073741824.-1 4 4
+ 1.005 0 1 cbr 150 ------- 0 0.0 1073741824.-1 5 5
- 1.005 0 1 cbr 150 ------- 0 0.0 1073741824.-1 5 5
+ 1.005 0 3 cbr 150 ------- 0 0.0 1073741824.-1 5 5
- 1.005 0 3 cbr 150 ------- 0 0.0 1073741824.-1 5 5
r 1.0056 0 1 cbr 150 ------- 0 0.0 1073741824.-1 0 0
+ 1.0056 1 2 cbr 150 ------- 0 0.0 1073741824.-1 0 0
- 1.0056 1 2 cbr 150 ------- 0 0.0 1073741824.-1 0 0
r 1.0056 0 3 cbr 150 ------- 0 0.0 1073741824.-1 0 0
+ 1.0056 3 2 cbr 150 ------- 0 0.0 1073741824.-1 0 0
- 1.0056 3 2 cbr 150 ------- 0 0.0 1073741824.-1 0 0
+ 1.006 0 1 cbr 150 ------- 0 0.0 1073741824.-1 6 6
- 1.006 0 1 cbr 150 ------- 0 0.0 1073741824.-1 6 6
+ 1.006 0 3 cbr 150 ------- 0 0.0 1073741824.-1 6 6
- 1.006 0 3 cbr 150 ------- 0 0.0 1073741824.-1 6 6
r 1.0066 0 1 cbr 150 ------- 0 0.0 1073741824.-1 1 1
+ 1.0066 1 2 cbr 150 ------- 0 0.0 1073741824.-1 1 1
- 1.0066 1 2 cbr 150 ------- 0 0.0 1073741824.-1 1 1
r 1.0066 0 3 cbr 150 ------- 0 0.0 1073741824.-1 1 1
+ 1.0066 3 2 cbr 150 ------- 0 0.0 1073741824.-1 1 1
- 1.0066 3 2 cbr 150 ------- 0 0.0 1073741824.-1 1 1
+ 1.007 0 1 cbr 150 ------- 0 0.0 1073741824.-1 7 7
- 1.007 0 1 cbr 150 ------- 0 0.0 1073741824.-1 7 7
+ 1.007 0 3 cbr 150 ------- 0 0.0 1073741824.-1 7 7
- 1.007 0 3 cbr 150 ------- 0 0.0 1073741824.-1 7 7
r 1.0076 0 1 cbr 150 ------- 0 0.0 1073741824.-1 2 2
+ 1.0076 1 2 cbr 150 ------- 0 0.0 1073741824.-1 2 2
- 1.0076 1 2 cbr 150 ------- 0 0.0 1073741824.-1 2 2
r 1.0076 0 3 cbr 150 ------- 0 0.0 1073741824.-1 2 2
+ 1.0076 3 2 cbr 150 ------- 0 0.0 1073741824.-1 2 2
- 1.0076 3 2 cbr 150 ------- 0 0.0 1073741824.-1 2 2
+ 1.008 0 1 cbr 150 ------- 0 0.0 1073741824.-1 8 8
- 1.008 0 1 cbr 150 ------- 0 0.0 1073741824.-1 8 8
+ 1.008 0 3 cbr 150 ------- 0 0.0 1073741824.-1 8 8
- 1.008 0 3 cbr 150 ------- 0 0.0 1073741824.-1 8 8
r 1.0086 0 1 cbr 150 ------- 0 0.0 1073741824.-1 3 3
+ 1.0086 1 2 cbr 150 ------- 0 0.0 1073741824.-1 3 3
- 1.0086 1 2 cbr 150 ------- 0 0.0 1073741824.-1 3 3
r 1.0086 0 3 cbr 150 ------- 0 0.0 1073741824.-1 3 3
+ 1.0086 3 2 cbr 150 ------- 0 0.0 1073741824.-1 3 3
- 1.0086 3 2 cbr 150 ------- 0 0.0 1073741824.-1 3 3
+ 1.009 0 1 cbr 150 ------- 0 0.0 1073741824.-1 9 9
- 1.009 0 1 cbr 150 ------- 0 0.0 1073741824.-1 9 9
+ 1.009 0 3 cbr 150 ------- 0 0.0 1073741824.-1 9 9
- 1.009 0 3 cbr 150 ------- 0 0.0 1073741824.-1 9 9
r 1.0096 0 1 cbr 150 ------- 0 0.0 1073741824.-1 4 4
+ 1.0096 1 2 cbr 150 ------- 0 0.0 1073741824.-1 4 4
- 1.0096 1 2 cbr 150 ------- 0 0.0 1073741824.-1 4 4
r 1.0096 0 3 cbr 150 ------- 0 0.0 1073741824.-1 4 4
+ 1.0096 3 2 cbr 150 ------- 0 0.0 1073741824.-1 4 4
- 1.0096 3 2 cbr 150 ------- 0 0.0 1073741824.-1 4 4
+ 1.01 0 1 cbr 150 ------- 0 0.0 1073741824.-1 10 10
- 1.01 0 1 cbr 150 ------- 0 0.0 1073741824.-1 10 10
+ 1.01 0 3 cbr 150 ------- 0 0.0 1073741824.-1 10 10
- 1.01 0 3 cbr 150 ------- 0 0.0 1073741824.-1 10 10
r 1.0106 0 1 cbr 150 ------- 0 0.0 1073741824.-1 5 5
+ 1.0106 1 2 cbr 150 ------- 0 0.0 1073741824.-1 5 5
- 1.0106 1 2 cbr 150 ------- 0 0.0 1073741824.-1 5 5
r 1.0106 0 3 cbr 150 ------- 0 0.0 1073741824.-1 5 5
+ 1.0106 3 2 cbr 150 ------- 0 0.0 1073741824.-1 5 5
- 1.0106 3 2 cbr 150 ------- 0 0.0 1073741824.-1 5 5
+ 1.011 0 1 cbr 150 ------- 0 0.0 1073741824.-1 11 11
- 1.011 0 1 cbr 150 ------- 0 0.0 1073741824.-1 11 11
+ 1.011 0 3 cbr 150 ------- 0 0.0 1073741824.-1 11 11
- 1.011 0 3 cbr 150 ------- 0 0.0 1073741824.-1 11 11
r 1.0112 1 2 cbr 150 ------- 0 0.0 1073741824.-1 0 0
+ 1.0112 2 3 cbr 150 ------- 0 0.0 1073741824.-1 0 0
- 1.0112 2 3 cbr 150 ------- 0 0.0 1073741824.-1 0 0
+ 1.0112 2 4 cbr 150 ------- 0 0.0 1073741824.-1 0 0
- 1.0112 2 4 cbr 150 ------- 0 0.0 1073741824.-1 0 0
r 1.0112 3 2 cbr 150 ------- 0 0.0 1073741824.-1 0 0
+ 1.0112 2 3 prune 80 ------- 30 2.0 3.0 -1 12
r 1.0116 0 1 cbr 150 ------- 0 0.0 1073741824.-1 6 6
+ 1.0116 1 2 cbr 150 ------- 0 0.0 1073741824.-1 6 6
- 1.0116 1 2 cbr 150 ------- 0 0.0 1073741824.-1 6 6
r 1.0116 0 3 cbr 150 ------- 0 0.0 1073741824.-1 6 6
+ 1.0116 3 2 cbr 150 ------- 0 0.0 1073741824.-1 6 6
- 1.0116 3 2 cbr 150 ------- 0 0.0 1073741824.-1 6 6
- 1.0118 2 3 prune 80 ------- 30 2.0 3.0 -1 12
+ 1.012 0 1 cbr 150 ------- 0 0.0 1073741824.-1 12 13
- 1.012 0 1 cbr 150 ------- 0 0.0 1073741824.-1 12 13
+ 1.012 0 3 cbr 150 ------- 0 0.0 1073741824.-1 12 13
- 1.012 0 3 cbr 150 ------- 0 0.0 1073741824.-1 12 13
r 1.0122 1 2 cbr 150 ------- 0 0.0 1073741824.-1 1 1
+ 1.0122 2 3 cbr 150 ------- 0 0.0 1073741824.-1 1 1
- 1.0122 2 3 cbr 150 ------- 0 0.0 1073741824.-1 1 1
+ 1.0122 2 4 cbr 150 ------- 0 0.0 1073741824.-1 1 1
- 1.0122 2 4 cbr 150 ------- 0 0.0 1073741824.-1 1 1
r 1.0122 3 2 cbr 150 ------- 0 0.0 1073741824.-1 1 1
+ 1.0122 2 3 prune 80 ------- 30 2.0 3.0 -1 14
r 1.0126 0 1 cbr 150 ------- 0 0.0 1073741824.-1 7 7
+ 1.0126 1 2 cbr 150 ------- 0 0.0 1073741824.-1 7 7
- 1.0126 1 2 cbr 150 ------- 0 0.0 1073741824.-1 7 7
r 1.0126 0 3 cbr 150 ------- 0 0.0 1073741824.-1 7 7
+ 1.0126 3 2 cbr 150 ------- 0 0.0 1073741824.-1 7 7
- 1.0126 3 2 cbr 150 ------- 0 0.0 1073741824.-1 7 7
- 1.0128 2 3 prune 80 ------- 30 2.0 3.0 -1 14
+ 1.013 0 1 cbr 150 ------- 0 0.0 1073741824.-1 13 15
- 1.013 0 1 cbr 150 ------- 0 0.0 1073741824.-1 13 15
+ 1.013 0 3 cbr 150 ------- 0 0.0 1073741824.-1 13 15
- 1.013 0 3 cbr 150 ------- 0 0.0 1073741824.-1 13 15
r 1.0132 1 2 cbr 150 ------- 0 0.0 1073741824.-1 2 2
+ 1.0132 2 3 cbr 150 ------- 0 0.0 1073741824.-1 2 2
- 1.0132 2 3 cbr 150 ------- 0 0.0 1073741824.-1 2 2
+ 1.0132 2 4 cbr 150 ------- 0 0.0 1073741824.-1 2 2
- 1.0132 2 4 cbr 150 ------- 0 0.0 1073741824.-1 2 2
r 1.0132 3 2 cbr 150 ------- 0 0.0 1073741824.-1 2 2
+ 1.0132 2 3 prune 80 ------- 30 2.0 3.0 -1 16
r 1.0136 0 1 cbr 150 ------- 0 0.0 1073741824.-1 8 8
+ 1.0136 1 2 cbr 150 ------- 0 0.0 1073741824.-1 8 8
- 1.0136 1 2 cbr 150 ------- 0 0.0 1073741824.-1 8 8
r 1.0136 0 3 cbr 150 ------- 0 0.0 1073741824.-1 8 8
+ 1.0136 3 2 cbr 150 ------- 0 0.0 1073741824.-1 8 8
- 1.0136 3 2 cbr 150 ------- 0 0.0 1073741824.-1 8 8
- 1.0138 2 3 prune 80 ------- 30 2.0 3.0 -1 16
+ 1.014 0 1 cbr 150 ------- 0 0.0 1073741824.-1 14 17
- 1.014 0 1 cbr 150 ------- 0 0.0 1073741824.-1 14 17
+ 1.014 0 3 cbr 150 ------- 0 0.0 1073741824.-1 14 17
- 1.014 0 3 cbr 150 ------- 0 0.0 1073741824.-1 14 17
r 1.0142 1 2 cbr 150 ------- 0 0.0 1073741824.-1 3 3
+ 1.0142 2 3 cbr 150 ------- 0 0.0 1073741824.-1 3 3
- 1.0142 2 3 cbr 150 ------- 0 0.0 1073741824.-1 3 3
+ 1.0142 2 4 cbr 150 ------- 0 0.0 1073741824.-1 3 3
- 1.0142 2 4 cbr 150 ------- 0 0.0 1073741824.-1 3 3
r 1.0142 3 2 cbr 150 ------- 0 0.0 1073741824.-1 3 3
+ 1.0142 2 3 prune 80 ------- 30 2.0 3.0 -1 18
r 1.0146 0 1 cbr 150 ------- 0 0.0 1073741824.-1 9 9
+ 1.0146 1 2 cbr 150 ------- 0 0.0 1073741824.-1 9 9
- 1.0146 1 2 cbr 150 ------- 0 0.0 1073741824.-1 9 9
r 1.0146 0 3 cbr 150 ------- 0 0.0 1073741824.-1 9 9
+ 1.0146 3 2 cbr 150 ------- 0 0.0 1073741824.-1 9 9
- 1.0146 3 2 cbr 150 ------- 0 0.0 1073741824.-1 9 9
- 1.0148 2 3 prune 80 ------- 30 2.0 3.0 -1 18
+ 1.015 0 1 cbr 150 ------- 0 0.0 1073741824.-1 15 19
- 1.015 0 1 cbr 150 ------- 0 0.0 1073741824.-1 15 19
+ 1.015 0 3 cbr 150 ------- 0 0.0 1073741824.-1 15 19
- 1.015 0 3 cbr 150 ------- 0 0.0 1073741824.-1 15 19
r 1.0152 1 2 cbr 150 ------- 0 0.0 1073741824.-1 4 4
+ 1.0152 2 3 cbr 150 ------- 0 0.0 1073741824.-1 4 4
- 1.0152 2 3 cbr 150 ------- 0 0.0 1073741824.-1 4 4
+ 1.0152 2 4 cbr 150 ------- 0 0.0 1073741824.-1 4 4
- 1.0152 2 4 cbr 150 ------- 0 0.0 1073741824.-1 4 4
r 1.0152 3 2 cbr 150 ------- 0 0.0 1073741824.-1 4 4
+ 1.0152 2 3 prune 80 ------- 30 2.0 3.0 -1 20
r 1.0156 0 1 cbr 150 ------- 0 0.0 1073741824.-1 10 10
+ 1.0156 1 2 cbr 150 ------- 0 0.0 1073741824.-1 10 10
- 1.0156 1 2 cbr 150 ------- 0 0.0 1073741824.-1 10 10
r 1.0156 0 3 cbr 150 ------- 0 0.0 1073741824.-1 10 10
+ 1.0156 3 2 cbr 150 ------- 0 0.0 1073741824.-1 10 10
- 1.0156 3 2 cbr 150 ------- 0 0.0 1073741824.-1 10 10
- 1.0158 2 3 prune 80 ------- 30 2.0 3.0 -1 20
+ 1.016 0 1 cbr 150 ------- 0 0.0 1073741824.-1 16 21
- 1.016 0 1 cbr 150 ------- 0 0.0 1073741824.-1 16 21
+ 1.016 0 3 cbr 150 ------- 0 0.0 1073741824.-1 16 21
- 1.016 0 3 cbr 150 ------- 0 0.0 1073741824.-1 16 21
r 1.0162 1 2 cbr 150 ------- 0 0.0 1073741824.-1 5 5
+ 1.0162 2 3 cbr 150 ------- 0 0.0 1073741824.-1 5 5
- 1.0162 2 3 cbr 150 ------- 0 0.0 1073741824.-1 5 5
+ 1.0162 2 4 cbr 150 ------- 0 0.0 1073741824.-1 5 5
- 1.0162 2 4 cbr 150 ------- 0 0.0 1073741824.-1 5 5
r 1.0162 3 2 cbr 150 ------- 0 0.0 1073741824.-1 5 5
+ 1.0162 2 3 prune 80 ------- 30 2.0 3.0 -1 22
r 1.0166 0 1 cbr 150 ------- 0 0.0 1073741824.-1 11 11
+ 1.0166 1 2 cbr 150 ------- 0 0.0 1073741824.-1 11 11
- 1.0166 1 2 cbr 150 ------- 0 0.0 1073741824.-1 11 11
r 1.0166 0 3 cbr 150 ------- 0 0.0 1073741824.-1 11 11
+ 1.0166 3 2 cbr 150 ------- 0 0.0 1073741824.-1 11 11
- 1.0166 3 2 cbr 150 ------- 0 0.0 1073741824.-1 11 11
- 1.0168 2 3 prune 80 ------- 30 2.0 3.0 -1 22
r 1.0168 2 3 cbr 150 ------- 0 0.0 1073741824.-1 0 0
+ 1.0168 3 2 prune 80 ------- 30 3.0 2.0 -1 23
r 1.0168 2 4 cbr 150 ------- 0 0.0 1073741824.-1 0 0
+ 1.0168 4 5 cbr 150 ------- 0 0.0 1073741824.-1 0 0
- 1.0168 4 5 cbr 150 ------- 0 0.0 1073741824.-1 0 0
+ 1.017 0 1 cbr 150 ------- 0 0.0 1073741824.-1 17 24
- 1.017 0 1 cbr 150 ------- 0 0.0 1073741824.-1 17 24
+ 1.017 0 3 cbr 150 ------- 0 0.0 1073741824.-1 17 24
- 1.017 0 3 cbr 150 ------- 0 0.0 1073741824.-1 17 24
r 1.01712 2 3 prune 80 ------- 30 2.0 3.0 -1 12
+ 1.01712 3 0 prune 80 ------- 30 3.0 0.1 -1 25
- 1.01712 3 0 prune 80 ------- 30 3.0 0.1 -1 25
- 1.0172 3 2 prune 80 ------- 30 3.0 2.0 -1 23
r 1.0172 1 2 cbr 150 ------- 0 0.0 1073741824.-1 6 6
+ 1.0172 2 3 cbr 150 ------- 0 0.0 1073741824.-1 6 6
- 1.0172 2 3 cbr 150 ------- 0 0.0 1073741824.-1 6 6
+ 1.0172 2 4 cbr 150 ------- 0 0.0 1073741824.-1 6 6
- 1.0172 2 4 cbr 150 ------- 0 0.0 1073741824.-1 6 6
r 1.0172 3 2 cbr 150 ------- 0 0.0 1073741824.-1 6 6
+ 1.0172 2 3 prune 80 ------- 30 2.0 3.0 -1 26
r 1.0176 0 1 cbr 150 ------- 0 0.0 1073741824.-1 12 13
+ 1.0176 1 2 cbr 150 ------- 0 0.0 1073741824.-1 12 13
- 1.0176 1 2 cbr 150 ------- 0 0.0 1073741824.-1 12 13
r 1.0176 0 3 cbr 150 ------- 0 0.0 1073741824.-1 12 13
+ 1.0176 3 0 prune 80 ------- 30 3.0 0.1 -1 27
- 1.0176 3 0 prune 80 ------- 30 3.0 0.1 -1 27
- 1.0178 2 3 prune 80 ------- 30 2.0 3.0 -1 26
r 1.0178 2 3 cbr 150 ------- 0 0.0 1073741824.-1 1 1
+ 1.0178 3 2 prune 80 ------- 30 3.0 2.0 -1 28
- 1.0178 3 2 prune 80 ------- 30 3.0 2.0 -1 28
r 1.0178 2 4 cbr 150 ------- 0 0.0 1073741824.-1 1 1
+ 1.0178 4 5 cbr 150 ------- 0 0.0 1073741824.-1 1 1
- 1.0178 4 5 cbr 150 ------- 0 0.0 1073741824.-1 1 1
+ 1.018 0 1 cbr 150 ------- 0 0.0 1073741824.-1 18 29
- 1.018 0 1 cbr 150 ------- 0 0.0 1073741824.-1 18 29
+ 1.018 0 3 cbr 150 ------- 0 0.0 1073741824.-1 18 29
- 1.018 0 3 cbr 150 ------- 0 0.0 1073741824.-1 18 29
r 1.01812 2 3 prune 80 ------- 30 2.0 3.0 -1 14
r 1.0182 1 2 cbr 150 ------- 0 0.0 1073741824.-1 7 7
+ 1.0182 2 3 cbr 150 ------- 0 0.0 1073741824.-1 7 7
- 1.0182 2 3 cbr 150 ------- 0 0.0 1073741824.-1 7 7
+ 1.0182 2 4 cbr 150 ------- 0 0.0 1073741824.-1 7 7
- 1.0182 2 4 cbr 150 ------- 0 0.0 1073741824.-1 7 7
r 1.0182 3 2 cbr 150 ------- 0 0.0 1073741824.-1 7 7
+ 1.0182 2 3 prune 80 ------- 30 2.0 3.0 -1 30
r 1.0186 0 1 cbr 150 ------- 0 0.0 1073741824.-1 13 15
+ 1.0186 1 2 cbr 150 ------- 0 0.0 1073741824.-1 13 15
- 1.0186 1 2 cbr 150 ------- 0 0.0 1073741824.-1 13 15
r 1.0186 0 3 cbr 150 ------- 0 0.0 1073741824.-1 13 15
+ 1.0186 3 0 prune 80 ------- 30 3.0 0.1 -1 31
- 1.0186 3 0 prune 80 ------- 30 3.0 0.1 -1 31
- 1.0188 2 3 prune 80 ------- 30 2.0 3.0 -1 30
r 1.0188 2 3 cbr 150 ------- 0 0.0 1073741824.-1 2 2
+ 1.0188 3 2 prune 80 ------- 30 3.0 2.0 -1 32
- 1.0188 3 2 prune 80 ------- 30 3.0 2.0 -1 32
r 1.0188 2 4 cbr 150 ------- 0 0.0 1073741824.-1 2 2
+ 1.0188 4 5 cbr 150 ------- 0 0.0 1073741824.-1 2 2
- 1.0188 4 5 cbr 150 ------- 0 0.0 1073741824.-1 2 2
+ 1.019 0 1 cbr 150 ------- 0 0.0 1073741824.-1 19 33
- 1.019 0 1 cbr 150 ------- 0 0.0 1073741824.-1 19 33
+ 1.019 0 3 cbr 150 ------- 0 0.0 1073741824.-1 19 33
- 1.019 0 3 cbr 150 ------- 0 0.0 1073741824.-1 19 33
r 1.01912 2 3 prune 80 ------- 30 2.0 3.0 -1 16
r 1.0192 1 2 cbr 150 ------- 0 0.0 1073741824.-1 8 8
+ 1.0192 2 3 cbr 150 ------- 0 0.0 1073741824.-1 8 8
- 1.0192 2 3 cbr 150 ------- 0 0.0 1073741824.-1 8 8
+ 1.0192 2 4 cbr 150 ------- 0 0.0 1073741824.-1 8 8
- 1.0192 2 4 cbr 150 ------- 0 0.0 1073741824.-1 8 8
r 1.0192 3 2 cbr 150 ------- 0 0.0 1073741824.-1 8 8
+ 1.0192 2 3 prune 80 ------- 30 2.0 3.0 -1 34
r 1.0196 0 1 cbr 150 ------- 0 0.0 1073741824.-1 14 17
+ 1.0196 1 2 cbr 150 ------- 0 0.0 1073741824.-1 14 17
- 1.0196 1 2 cbr 150 ------- 0 0.0 1073741824.-1 14 17
r 1.0196 0 3 cbr 150 ------- 0 0.0 1073741824.-1 14 17
+ 1.0196 3 0 prune 80 ------- 30 3.0 0.1 -1 35
- 1.0196 3 0 prune 80 ------- 30 3.0 0.1 -1 35
- 1.0198 2 3 prune 80 ------- 30 2.0 3.0 -1 34
r 1.0198 2 3 cbr 150 ------- 0 0.0 1073741824.-1 3 3
+ 1.0198 3 2 prune 80 ------- 30 3.0 2.0 -1 36
- 1.0198 3 2 prune 80 ------- 30 3.0 2.0 -1 36
r 1.0198 2 4 cbr 150 ------- 0 0.0 1073741824.-1 3 3
+ 1.0198 4 5 cbr 150 ------- 0 0.0 1073741824.-1 3 3
- 1.0198 4 5 cbr 150 ------- 0 0.0 1073741824.-1 3 3
+ 1.02 0 1 cbr 150 ------- 0 0.0 1073741824.-1 20 37
- 1.02 0 1 cbr 150 ------- 0 0.0 1073741824.-1 20 37
+ 1.02 0 3 cbr 150 ------- 0 0.0 1073741824.-1 20 37
- 1.02 0 3 cbr 150 ------- 0 0.0 1073741824.-1 20 37
r 1.02012 2 3 prune 80 ------- 30 2.0 3.0 -1 18
r 1.0202 1 2 cbr 150 ------- 0 0.0 1073741824.-1 9 9
+ 1.0202 2 3 cbr 150 ------- 0 0.0 1073741824.-1 9 9
- 1.0202 2 3 cbr 150 ------- 0 0.0 1073741824.-1 9 9
+ 1.0202 2 4 cbr 150 ------- 0 0.0 1073741824.-1 9 9
- 1.0202 2 4 cbr 150 ------- 0 0.0 1073741824.-1 9 9
r 1.0202 3 2 cbr 150 ------- 0 0.0 1073741824.-1 9 9
+ 1.0202 2 3 prune 80 ------- 30 2.0 3.0 -1 38
r 1.0206 0 1 cbr 150 ------- 0 0.0 1073741824.-1 15 19
+ 1.0206 1 2 cbr 150 ------- 0 0.0 1073741824.-1 15 19
- 1.0206 1 2 cbr 150 ------- 0 0.0 1073741824.-1 15 19
r 1.0206 0 3 cbr 150 ------- 0 0.0 1073741824.-1 15 19
+ 1.0206 3 0 prune 80 ------- 30 3.0 0.1 -1 39
- 1.0206 3 0 prune 80 ------- 30 3.0 0.1 -1 39
- 1.0208 2 3 prune 80 ------- 30 2.0 3.0 -1 38
r 1.0208 2 3 cbr 150 ------- 0 0.0 1073741824.-1 4 4
+ 1.0208 3 2 prune 80 ------- 30 3.0 2.0 -1 40
- 1.0208 3 2 prune 80 ------- 30 3.0 2.0 -1 40
r 1.0208 2 4 cbr 150 ------- 0 0.0 1073741824.-1 4 4
+ 1.0208 4 5 cbr 150 ------- 0 0.0 1073741824.-1 4 4
- 1.0208 4 5 cbr 150 ------- 0 0.0 1073741824.-1 4 4
+ 1.021 0 1 cbr 150 ------- 0 0.0 1073741824.-1 21 41
- 1.021 0 1 cbr 150 ------- 0 0.0 1073741824.-1 21 41
+ 1.021 0 3 cbr 150 ------- 0 0.0 1073741824.-1 21 41
- 1.021 0 3 cbr 150 ------- 0 0.0 1073741824.-1 21 41
r 1.02112 2 3 prune 80 ------- 30 2.0 3.0 -1 20
r 1.0212 1 2 cbr 150 ------- 0 0.0 1073741824.-1 10 10
+ 1.0212 2 3 cbr 150 ------- 0 0.0 1073741824.-1 10 10
- 1.0212 2 3 cbr 150 ------- 0 0.0 1073741824.-1 10 10
+ 1.0212 2 4 cbr 150 ------- 0 0.0 1073741824.-1 10 10
- 1.0212 2 4 cbr 150 ------- 0 0.0 1073741824.-1 10 10
r 1.0212 3 2 cbr 150 ------- 0 0.0 1073741824.-1 10 10
+ 1.0212 2 3 prune 80 ------- 30 2.0 3.0 -1 42
r 1.0216 0 1 cbr 150 ------- 0 0.0 1073741824.-1 16 21
+ 1.0216 1 2 cbr 150 ------- 0 0.0 1073741824.-1 16 21
- 1.0216 1 2 cbr 150 ------- 0 0.0 1073741824.-1 16 21
r 1.0216 0 3 cbr 150 ------- 0 0.0 1073741824.-1 16 21
+ 1.0216 3 0 prune 80 ------- 30 3.0 0.1 -1 43
- 1.0216 3 0 prune 80 ------- 30 3.0 0.1 -1 43
- 1.0218 2 3 prune 80 ------- 30 2.0 3.0 -1 42
r 1.0218 2 3 cbr 150 ------- 0 0.0 1073741824.-1 5 5
+ 1.0218 3 2 prune 80 ------- 30 3.0 2.0 -1 44
- 1.0218 3 2 prune 80 ------- 30 3.0 2.0 -1 44
r 1.0218 2 4 cbr 150 ------- 0 0.0 1073741824.-1 5 5
+ 1.0218 4 5 cbr 150 ------- 0 0.0 1073741824.-1 5 5
- 1.0218 4 5 cbr 150 ------- 0 0.0 1073741824.-1 5 5
+ 1.022 0 1 cbr 150 ------- 0 0.0 1073741824.-1 22 45
- 1.022 0 1 cbr 150 ------- 0 0.0 1073741824.-1 22 45
+ 1.022 0 3 cbr 150 ------- 0 0.0 1073741824.-1 22 45
- 1.022 0 3 cbr 150 ------- 0 0.0 1073741824.-1 22 45
r 1.02212 2 3 prune 80 ------- 30 2.0 3.0 -1 22
r 1.0222 1 2 cbr 150 ------- 0 0.0 1073741824.-1 11 11
+ 1.0222 2 3 cbr 150 ------- 0 0.0 1073741824.-1 11 11
- 1.0222 2 3 cbr 150 ------- 0 0.0 1073741824.-1 11 11
+ 1.0222 2 4 cbr 150 ------- 0 0.0 1073741824.-1 11 11
- 1.0222 2 4 cbr 150 ------- 0 0.0 1073741824.-1 11 11
r 1.0222 3 2 cbr 150 ------- 0 0.0 1073741824.-1 11 11
+ 1.0222 2 3 prune 80 ------- 30 2.0 3.0 -1 46
r 1.0224 4 5 cbr 150 ------- 0 0.0 1073741824.-1 0 0
+ 1.0224 5 4 prune 80 ------- 30 5.1 4.0 -1 47
- 1.0224 5 4 prune 80 ------- 30 5.1 4.0 -1 47
r 1.02244 3 0 prune 80 ------- 30 3.0 0.1 -1 25
r 1.02252 3 2 prune 80 ------- 30 3.0 2.0 -1 23
r 1.0226 0 1 cbr 150 ------- 0 0.0 1073741824.-1 17 24
+ 1.0226 1 2 cbr 150 ------- 0 0.0 1073741824.-1 17 24
- 1.0226 1 2 cbr 150 ------- 0 0.0 1073741824.-1 17 24
r 1.0226 0 3 cbr 150 ------- 0 0.0 1073741824.-1 17 24
+ 1.0226 3 0 prune 80 ------- 30 3.0 0.1 -1 48
- 1.0226 3 0 prune 80 ------- 30 3.0 0.1 -1 48
- 1.0228 2 3 prune 80 ------- 30 2.0 3.0 -1 46
r 1.0228 2 3 cbr 150 ------- 0 0.0 1073741824.-1 6 6
+ 1.0228 3 2 prune 80 ------- 30 3.0 2.0 -1 49
- 1.0228 3 2 prune 80 ------- 30 3.0 2.0 -1 49
r 1.0228 2 4 cbr 150 ------- 0 0.0 1073741824.-1 6 6
+ 1.0228 4 5 cbr 150 ------- 0 0.0 1073741824.-1 6 6
- 1.0228 4 5 cbr 150 ------- 0 0.0 1073741824.-1 6 6
r 1.02292 3 0 prune 80 ------- 30 3.0 0.1 -1 27
+ 1.023 0 1 cbr 150 ------- 0 0.0 1073741824.-1 23 50
- 1.023 0 1 cbr 150 ------- 0 0.0 1073741824.-1 23 50
r 1.02312 2 3 prune 80 ------- 30 2.0 3.0 -1 26
r 1.02312 3 2 prune 80 ------- 30 3.0 2.0 -1 28
r 1.0232 1 2 cbr 150 ------- 0 0.0 1073741824.-1 12 13
+ 1.0232 2 4 cbr 150 ------- 0 0.0 1073741824.-1 12 13
- 1.0232 2 4 cbr 150 ------- 0 0.0 1073741824.-1 12 13
r 1.0234 4 5 cbr 150 ------- 0 0.0 1073741824.-1 1 1
+ 1.0234 5 4 prune 80 ------- 30 5.1 4.0 -1 51
- 1.0234 5 4 prune 80 ------- 30 5.1 4.0 -1 51
r 1.0236 0 1 cbr 150 ------- 0 0.0 1073741824.-1 18 29
+ 1.0236 1 2 cbr 150 ------- 0 0.0 1073741824.-1 18 29
- 1.0236 1 2 cbr 150 ------- 0 0.0 1073741824.-1 18 29
r 1.0236 0 3 cbr 150 ------- 0 0.0 1073741824.-1 18 29
+ 1.0236 3 0 prune 80 ------- 30 3.0 0.1 -1 52
- 1.0236 3 0 prune 80 ------- 30 3.0 0.1 -1 52
r 1.0238 2 3 cbr 150 ------- 0 0.0 1073741824.-1 7 7
+ 1.0238 3 2 prune 80 ------- 30 3.0 2.0 -1 53
- 1.0238 3 2 prune 80 ------- 30 3.0 2.0 -1 53
r 1.0238 2 4 cbr 150 ------- 0 0.0 1073741824.-1 7 7
+ 1.0238 4 5 cbr 150 ------- 0 0.0 1073741824.-1 7 7
- 1.0238 4 5 cbr 150 ------- 0 0.0 1073741824.-1 7 7
r 1.02392 3 0 prune 80 ------- 30 3.0 0.1 -1 31
+ 1.024 0 1 cbr 150 ------- 0 0.0 1073741824.-1 24 54
- 1.024 0 1 cbr 150 ------- 0 0.0 1073741824.-1 24 54
r 1.02412 2 3 prune 80 ------- 30 2.0 3.0 -1 30
r 1.02412 3 2 prune 80 ------- 30 3.0 2.0 -1 32
r 1.0242 1 2 cbr 150 ------- 0 0.0 1073741824.-1 13 15
+ 1.0242 2 4 cbr 150 ------- 0 0.0 1073741824.-1 13 15
- 1.0242 2 4 cbr 150 ------- 0 0.0 1073741824.-1 13 15
r 1.0244 4 5 cbr 150 ------- 0 0.0 1073741824.-1 2 2
+ 1.0244 5 4 prune 80 ------- 30 5.1 4.0 -1 55
- 1.0244 5 4 prune 80 ------- 30 5.1 4.0 -1 55
r 1.0246 0 1 cbr 150 ------- 0 0.0 1073741824.-1 19 33
+ 1.0246 1 2 cbr 150 ------- 0 0.0 1073741824.-1 19 33
- 1.0246 1 2 cbr 150 ------- 0 0.0 1073741824.-1 19 33
r 1.0246 0 3 cbr 150 ------- 0 0.0 1073741824.-1 19 33
+ 1.0246 3 0 prune 80 ------- 30 3.0 0.1 -1 56
- 1.0246 3 0 prune 80 ------- 30 3.0 0.1 -1 56
r 1.0248 2 3 cbr 150 ------- 0 0.0 1073741824.-1 8 8
+ 1.0248 3 2 prune 80 ------- 30 3.0 2.0 -1 57
- 1.0248 3 2 prune 80 ------- 30 3.0 2.0 -1 57
r 1.0248 2 4 cbr 150 ------- 0 0.0 1073741824.-1 8 8
+ 1.0248 4 5 cbr 150 ------- 0 0.0 1073741824.-1 8 8
- 1.0248 4 5 cbr 150 ------- 0 0.0 1073741824.-1 8 8
r 1.02492 3 0 prune 80 ------- 30 3.0 0.1 -1 35
+ 1.025 0 1 cbr 150 ------- 0 0.0 1073741824.-1 25 58
- 1.025 0 1 cbr 150 ------- 0 0.0 1073741824.-1 25 58
r 1.02512 2 3 prune 80 ------- 30 2.0 3.0 -1 34
r 1.02512 3 2 prune 80 ------- 30 3.0 2.0 -1 36
r 1.0252 1 2 cbr 150 ------- 0 0.0 1073741824.-1 14 17
+ 1.0252 2 4 cbr 150 ------- 0 0.0 1073741824.-1 14 17
- 1.0252 2 4 cbr 150 ------- 0 0.0 1073741824.-1 14 17
r 1.0254 4 5 cbr 150 ------- 0 0.0 1073741824.-1 3 3
+ 1.0254 5 4 prune 80 ------- 30 5.1 4.0 -1 59
- 1.0254 5 4 prune 80 ------- 30 5.1 4.0 -1 59
r 1.0256 0 1 cbr 150 ------- 0 0.0 1073741824.-1 20 37
+ 1.0256 1 2 cbr 150 ------- 0 0.0 1073741824.-1 20 37
- 1.0256 1 2 cbr 150 ------- 0 0.0 1073741824.-1 20 37
r 1.0256 0 3 cbr 150 ------- 0 0.0 1073741824.-1 20 37
+ 1.0256 3 0 prune 80 ------- 30 3.0 0.1 -1 60
- 1.0256 3 0 prune 80 ------- 30 3.0 0.1 -1 60
r 1.0258 2 3 cbr 150 ------- 0 0.0 1073741824.-1 9 9
+ 1.0258 3 2 prune 80 ------- 30 3.0 2.0 -1 61
- 1.0258 3 2 prune 80 ------- 30 3.0 2.0 -1 61
r 1.0258 2 4 cbr 150 ------- 0 0.0 1073741824.-1 9 9
+ 1.0258 4 5 cbr 150 ------- 0 0.0 1073741824.-1 9 9
- 1.0258 4 5 cbr 150 ------- 0 0.0 1073741824.-1 9 9
r 1.02592 3 0 prune 80 ------- 30 3.0 0.1 -1 39
+ 1.026 0 1 cbr 150 ------- 0 0.0 1073741824.-1 26 62
- 1.026 0 1 cbr 150 ------- 0 0.0 1073741824.-1 26 62
r 1.02612 2 3 prune 80 ------- 30 2.0 3.0 -1 38
r 1.02612 3 2 prune 80 ------- 30 3.0 2.0 -1 40
r 1.0262 1 2 cbr 150 ------- 0 0.0 1073741824.-1 15 19
+ 1.0262 2 4 cbr 150 ------- 0 0.0 1073741824.-1 15 19
- 1.0262 2 4 cbr 150 ------- 0 0.0 1073741824.-1 15 19
r 1.0264 4 5 cbr 150 ------- 0 0.0 1073741824.-1 4 4
+ 1.0264 5 4 prune 80 ------- 30 5.1 4.0 -1 63
- 1.0264 5 4 prune 80 ------- 30 5.1 4.0 -1 63
r 1.0266 0 1 cbr 150 ------- 0 0.0 1073741824.-1 21 41
+ 1.0266 1 2 cbr 150 ------- 0 0.0 1073741824.-1 21 41
- 1.0266 1 2 cbr 150 ------- 0 0.0 1073741824.-1 21 41
r 1.0266 0 3 cbr 150 ------- 0 0.0 1073741824.-1 21 41
+ 1.0266 3 0 prune 80 ------- 30 3.0 0.1 -1 64
- 1.0266 3 0 prune 80 ------- 30 3.0 0.1 -1 64
r 1.0268 2 3 cbr 150 ------- 0 0.0 1073741824.-1 10 10
+ 1.0268 3 2 prune 80 ------- 30 3.0 2.0 -1 65
- 1.0268 3 2 prune 80 ------- 30 3.0 2.0 -1 65
r 1.0268 2 4 cbr 150 ------- 0 0.0 1073741824.-1 10 10
+ 1.0268 4 5 cbr 150 ------- 0 0.0 1073741824.-1 10 10
- 1.0268 4 5 cbr 150 ------- 0 0.0 1073741824.-1 10 10
r 1.02692 3 0 prune 80 ------- 30 3.0 0.1 -1 43
+ 1.027 0 1 cbr 150 ------- 0 0.0 1073741824.-1 27 66
- 1.027 0 1 cbr 150 ------- 0 0.0 1073741824.-1 27 66
r 1.02712 2 3 prune 80 ------- 30 2.0 3.0 -1 42
r 1.02712 3 2 prune 80 ------- 30 3.0 2.0 -1 44
r 1.0272 1 2 cbr 150 ------- 0 0.0 1073741824.-1 16 21
+ 1.0272 2 4 cbr 150 ------- 0 0.0 1073741824.-1 16 21
- 1.0272 2 4 cbr 150 ------- 0 0.0 1073741824.-1 16 21
r 1.0274 4 5 cbr 150 ------- 0 0.0 1073741824.-1 5 5
+ 1.0274 5 4 prune 80 ------- 30 5.1 4.0 -1 67
- 1.0274 5 4 prune 80 ------- 30 5.1 4.0 -1 67
r 1.0276 0 1 cbr 150 ------- 0 0.0 1073741824.-1 22 45
+ 1.0276 1 2 cbr 150 ------- 0 0.0 1073741824.-1 22 45
- 1.0276 1 2 cbr 150 ------- 0 0.0 1073741824.-1 22 45
r 1.0276 0 3 cbr 150 ------- 0 0.0 1073741824.-1 22 45
+ 1.0276 3 0 prune 80 ------- 30 3.0 0.1 -1 68
- 1.0276 3 0 prune 80 ------- 30 3.0 0.1 -1 68
r 1.02772 5 4 prune 80 ------- 30 5.1 4.0 -1 47
+ 1.02772 4 2 prune 80 ------- 30 4.0 2.0 -1 69
- 1.02772 4 2 prune 80 ------- 30 4.0 2.0 -1 69
r 1.0278 2 3 cbr 150 ------- 0 0.0 1073741824.-1 11 11
+ 1.0278 3 2 prune 80 ------- 30 3.0 2.0 -1 70
- 1.0278 3 2 prune 80 ------- 30 3.0 2.0 -1 70
r 1.0278 2 4 cbr 150 ------- 0 0.0 1073741824.-1 11 11
+ 1.0278 4 2 prune 80 ------- 30 4.0 2.0 -1 71
r 1.02792 3 0 prune 80 ------- 30 3.0 0.1 -1 48
+ 1.028 0 1 cbr 150 ------- 0 0.0 1073741824.-1 28 72
- 1.028 0 1 cbr 150 ------- 0 0.0 1073741824.-1 28 72
- 1.02804 4 2 prune 80 ------- 30 4.0 2.0 -1 71
r 1.02812 2 3 prune 80 ------- 30 2.0 3.0 -1 46
r 1.02812 3 2 prune 80 ------- 30 3.0 2.0 -1 49
r 1.0282 1 2 cbr 150 ------- 0 0.0 1073741824.-1 17 24
+ 1.0282 2 4 cbr 150 ------- 0 0.0 1073741824.-1 17 24
- 1.0282 2 4 cbr 150 ------- 0 0.0 1073741824.-1 17 24
r 1.0284 4 5 cbr 150 ------- 0 0.0 1073741824.-1 6 6
+ 1.0284 5 4 prune 80 ------- 30 5.1 4.0 -1 73
- 1.0284 5 4 prune 80 ------- 30 5.1 4.0 -1 73
r 1.0286 0 1 cbr 150 ------- 0 0.0 1073741824.-1 23 50
+ 1.0286 1 2 cbr 150 ------- 0 0.0 1073741824.-1 23 50
- 1.0286 1 2 cbr 150 ------- 0 0.0 1073741824.-1 23 50
r 1.02872 5 4 prune 80 ------- 30 5.1 4.0 -1 51
r 1.0288 2 4 cbr 150 ------- 0 0.0 1073741824.-1 12 13
+ 1.0288 4 2 prune 80 ------- 30 4.0 2.0 -1 74
- 1.0288 4 2 prune 80 ------- 30 4.0 2.0 -1 74
r 1.02892 3 0 prune 80 ------- 30 3.0 0.1 -1 52
+ 1.029 0 1 cbr 150 ------- 0 0.0 1073741824.-1 29 75
- 1.029 0 1 cbr 150 ------- 0 0.0 1073741824.-1 29 75
r 1.02912 3 2 prune 80 ------- 30 3.0 2.0 -1 53
r 1.0292 1 2 cbr 150 ------- 0 0.0 1073741824.-1 18 29
+ 1.0292 2 4 cbr 150 ------- 0 0.0 1073741824.-1 18 29
- 1.0292 2 4 cbr 150 ------- 0 0.0 1073741824.-1 18 29
r 1.0294 4 5 cbr 150 ------- 0 0.0 1073741824.-1 7 7
+ 1.0294 5 4 prune 80 ------- 30 5.1 4.0 -1 76
- 1.0294 5 4 prune 80 ------- 30 5.1 4.0 -1 76
r 1.0296 0 1 cbr 150 ------- 0 0.0 1073741824.-1 24 54
+ 1.0296 1 2 cbr 150 ------- 0 0.0 1073741824.-1 24 54
- 1.0296 1 2 cbr 150 ------- 0 0.0 1073741824.-1 24 54
r 1.02972 5 4 prune 80 ------- 30 5.1 4.0 -1 55
r 1.0298 2 4 cbr 150 ------- 0 0.0 1073741824.-1 13 15
+ 1.0298 4 2 prune 80 ------- 30 4.0 2.0 -1 77
- 1.0298 4 2 prune 80 ------- 30 4.0 2.0 -1 77
r 1.02992 3 0 prune 80 ------- 30 3.0 0.1 -1 56
+ 1.03 0 1 cbr 150 ------- 0 0.0 1073741824.-1 30 78
- 1.03 0 1 cbr 150 ------- 0 0.0 1073741824.-1 30 78
r 1.03012 3 2 prune 80 ------- 30 3.0 2.0 -1 57
r 1.0302 1 2 cbr 150 ------- 0 0.0 1073741824.-1 19 33
+ 1.0302 2 4 cbr 150 ------- 0 0.0 1073741824.-1 19 33
- 1.0302 2 4 cbr 150 ------- 0 0.0 1073741824.-1 19 33
r 1.0304 4 5 cbr 150 ------- 0 0.0 1073741824.-1 8 8
+ 1.0304 5 4 prune 80 ------- 30 5.1 4.0 -1 79
- 1.0304 5 4 prune 80 ------- 30 5.1 4.0 -1 79
r 1.0306 0 1 cbr 150 ------- 0 0.0 1073741824.-1 25 58
+ 1.0306 1 2 cbr 150 ------- 0 0.0 1073741824.-1 25 58
- 1.0306 1 2 cbr 150 ------- 0 0.0 1073741824.-1 25 58
r 1.03072 5 4 prune 80 ------- 30 5.1 4.0 -1 59
r 1.0308 2 4 cbr 150 ------- 0 0.0 1073741824.-1 14 17
+ 1.0308 4 2 prune 80 ------- 30 4.0 2.0 -1 80
- 1.0308 4 2 prune 80 ------- 30 4.0 2.0 -1 80
r 1.03092 3 0 prune 80 ------- 30 3.0 0.1 -1 60
+ 1.031 0 1 cbr 150 ------- 0 0.0 1073741824.-1 31 81
- 1.031 0 1 cbr 150 ------- 0 0.0 1073741824.-1 31 81
r 1.03112 3 2 prune 80 ------- 30 3.0 2.0 -1 61
r 1.0312 1 2 cbr 150 ------- 0 0.0 1073741824.-1 20 37
+ 1.0312 2 4 cbr 150 ------- 0 0.0 1073741824.-1 20 37
- 1.0312 2 4 cbr 150 ------- 0 0.0 1073741824.-1 20 37
r 1.0314 4 5 cbr 150 ------- 0 0.0 1073741824.-1 9 9
+ 1.0314 5 4 prune 80 ------- 30 5.1 4.0 -1 82
- 1.0314 5 4 prune 80 ------- 30 5.1 4.0 -1 82
r 1.0316 0 1 cbr 150 ------- 0 0.0 1073741824.-1 26 62
+ 1.0316 1 2 cbr 150 ------- 0 0.0 1073741824.-1 26 62
- 1.0316 1 2 cbr 150 ------- 0 0.0 1073741824.-1 26 62
r 1.03172 5 4 prune 80 ------- 30 5.1 4.0 -1 63
r 1.0318 2 4 cbr 150 ------- 0 0.0 1073741824.-1 15 19
+ 1.0318 4 2 prune 80 ------- 30 4.0 2.0 -1 83
- 1.0318 4 2 prune 80 ------- 30 4.0 2.0 -1 83
r 1.03192 3 0 prune 80 ------- 30 3.0 0.1 -1 64
+ 1.032 0 1 cbr 150 ------- 0 0.0 1073741824.-1 32 84
- 1.032 0 1 cbr 150 ------- 0 0.0 1073741824.-1 32 84
r 1.03212 3 2 prune 80 ------- 30 3.0 2.0 -1 65
r 1.0322 1 2 cbr 150 ------- 0 0.0 1073741824.-1 21 41
+ 1.0322 2 4 cbr 150 ------- 0 0.0 1073741824.-1 21 41
- 1.0322 2 4 cbr 150 ------- 0 0.0 1073741824.-1 21 41
r 1.0324 4 5 cbr 150 ------- 0 0.0 1073741824.-1 10 10
+ 1.0324 5 4 prune 80 ------- 30 5.1 4.0 -1 85
- 1.0324 5 4 prune 80 ------- 30 5.1 4.0 -1 85
r 1.0326 0 1 cbr 150 ------- 0 0.0 1073741824.-1 27 66
+ 1.0326 1 2 cbr 150 ------- 0 0.0 1073741824.-1 27 66
- 1.0326 1 2 cbr 150 ------- 0 0.0 1073741824.-1 27 66
r 1.03272 5 4 prune 80 ------- 30 5.1 4.0 -1 67
r 1.0328 2 4 cbr 150 ------- 0 0.0 1073741824.-1 16 21
+ 1.0328 4 2 prune 80 ------- 30 4.0 2.0 -1 86
- 1.0328 4 2 prune 80 ------- 30 4.0 2.0 -1 86
r 1.03292 3 0 prune 80 ------- 30 3.0 0.1 -1 68
+ 1.033 0 1 cbr 150 ------- 0 0.0 1073741824.-1 33 87
- 1.033 0 1 cbr 150 ------- 0 0.0 1073741824.-1 33 87
r 1.03304 4 2 prune 80 ------- 30 4.0 2.0 -1 69
+ 1.03304 2 1 prune 80 ------- 30 2.0 1.0 -1 88
- 1.03304 2 1 prune 80 ------- 30 2.0 1.0 -1 88
r 1.03312 3 2 prune 80 ------- 30 3.0 2.0 -1 70
r 1.0332 1 2 cbr 150 ------- 0 0.0 1073741824.-1 22 45
+ 1.0332 2 1 prune 80 ------- 30 2.0 1.0 -1 89
r 1.03336 4 2 prune 80 ------- 30 4.0 2.0 -1 71
- 1.03336 2 1 prune 80 ------- 30 2.0 1.0 -1 89
r 1.0336 0 1 cbr 150 ------- 0 0.0 1073741824.-1 28 72
+ 1.0336 1 2 cbr 150 ------- 0 0.0 1073741824.-1 28 72
- 1.0336 1 2 cbr 150 ------- 0 0.0 1073741824.-1 28 72
r 1.03372 5 4 prune 80 ------- 30 5.1 4.0 -1 73
r 1.0338 2 4 cbr 150 ------- 0 0.0 1073741824.-1 17 24
+ 1.0338 4 2 prune 80 ------- 30 4.0 2.0 -1 90
- 1.0338 4 2 prune 80 ------- 30 4.0 2.0 -1 90
+ 1.034 0 1 cbr 150 ------- 0 0.0 1073741824.-1 34 91
- 1.034 0 1 cbr 150 ------- 0 0.0 1073741824.-1 34 91
r 1.03412 4 2 prune 80 ------- 30 4.0 2.0 -1 74
r 1.0342 1 2 cbr 150 ------- 0 0.0 1073741824.-1 23 50
+ 1.0342 2 1 prune 80 ------- 30 2.0 1.0 -1 92