V -t * -v 1.0a5 -a 0
A -t * -n 1 -p 0 -o 0x7fffffff -c 30 -a 1
A -t * -h 1 -m 1073741823 -s 0
c -t * -i 1 -n Green
c -t * -i 2 -n Orange
n -t * -a 0 -s 0 -S UP -v circle -c Blue -i Blue
n -t * -a 1 -s 1 -S UP -v circle -c Green -i Green
n -t * -a 2 -s 2 -S UP -v circle -c black -i black
n -t * -a 3 -s 3 -S UP -v circle -c black -i black
l -t * -s 0 -d 2 -S UP -r 2500000 -D 0.0040000000000000001 -c red
l -t * -s 1 -d 2 -S UP -r 1500000 -D 0.0030000000000000001 -c red
l -t * -s 2 -d 3 -S UP -r 500000 -D 0.0035000000000000001 -c cyan
+ -t 1 -s 0 -d 2 -p cbr -e 50 -c 1 -i 0 -a 1 -x {0.0 3.0 0 ------- null}
- -t 1 -s 0 -d 2 -p cbr -e 50 -c 1 -i 0 -a 1 -x {0.0 3.0 0 ------- null}
h -t 1 -s 0 -d 2 -p cbr -e 50 -c 1 -i 0 -a 1 -x {0.0 3.0 -1 ------- null}
+ -t 1.0015 -s 0 -d 2 -p cbr -e 50 -c 1 -i 1 -a 1 -x {0.0 3.0 1 ------- null}
- -t 1.0015 -s 0 -d 2 -p cbr -e 50 -c 1 -i 1 -a 1 -x {0.0 3.0 1 ------- null}
h -t 1.0015 -s 0 -d 2 -p cbr -e 50 -c 1 -i 1 -a 1 -x {0.0 3.0 -1 ------- null}
+ -t 1.003 -s 0 -d 2 -p cbr -e 50 -c 1 -i 2 -a 1 -x {0.0 3.0 2 ------- null}
- -t 1.003 -s 0 -d 2 -p cbr -e 50 -c 1 -i 2 -a 1 -x {0.0 3.0 2 ------- null}
h -t 1.003 -s 0 -d 2 -p cbr -e 50 -c 1 -i 2 -a 1 -x {0.0 3.0 -1 ------- null}
r -t 1.00416 -s 0 -d 2 -p cbr -e 50 -c 1 -i 0 -a 1 -x {0.0 3.0 0 ------- null}
+ -t 1.00416 -s 2 -d 3 -p cbr -e 50 -c 1 -i 0 -a 1 -x {0.0 3.0 0 ------- null}
- -t 1.00416 -s 2 -d 3 -p cbr -e 50 -c 1 -i 0 -a 1 -x {0.0 3.0 0 ------- null}
h -t 1.00416 -s 2 -d 3 -p cbr -e 50 -c 1 -i 0 -a 1 -x {0.0 3.0 -1 ------- null}
+ -t 1.0045 -s 0 -d 2 -p cbr -e 50 -c 1 -i 3 -a 1 -x {0.0 3.0 3 ------- null}
- -t 1.0045 -s 0 -d 2 -p cbr -e 50 -c 1 -i 3 -a 1 -x {0.0 3.0 3 ------- null}
h -t 1.0045 -s 0 -d 2 -p cbr -e 50 -c 1 -i 3 -a 1 -x {0.0 3.0 -1 ------- null}
r -t 1.00566 -s 0 -d 2 -p cbr -e 50 -c 1 -i 1 -a 1 -x {0.0 3.0 1 ------- null}
+ -t 1.00566 -s 2 -d 3 -p cbr -e 50 -c 1 -i 1 -a 1 -x {0.0 3.0 1 ------- null}
- -t 1.00566 -s 2 -d 3 -p cbr -e 50 -c 1 -i 1 -a 1 -x {0.0 3.0 1 ------- null}
h -t 1.00566 -s 2 -d 3 -p cbr -e 50 -c 1 -i 1 -a 1 -x {0.0 3.0 -1 ------- null}
+ -t 1.006 -s 0 -d 2 -p cbr -e 50 -c 1 -i 4 -a 1 -x {0.0 3.0 4 ------- null}
- -t 1.006 -s 0 -d 2 -p cbr -e 50 -c 1 -i 4 -a 1 -x {0.0 3.0 4 ------- null}
h -t 1.006 -s 0 -d 2 -p cbr -e 50 -c 1 -i 4 -a 1 -x {0.0 3.0 -1 ------- null}
r -t 1.00716 -s 0 -d 2 -p cbr -e 50 -c 1 -i 2 -a 1 -x {0.0 3.0 2 ------- null}
+ -t 1.00716 -s 2 -d 3 -p cbr -e 50 -c 1 -i 2 -a 1 -x {0.0 3.0 2 ------- null}
- -t 1.00716 -s 2 -d 3 -p cbr -e 50 -c 1 -i 2 -a 1 -x {0.0 3.0 2 ------- null}
h -t 1.00716 -s 2 -d 3 -p cbr -e 50 -c 1 -i 2 -a 1 -x {0.0 3.0 -1 ------- null}
+ -t 1.0075 -s 0 -d 2 -p cbr -e 50 -c 1 -i 5 -a 1 -x {0.0 3.0 5 ------- null}
- -t 1.0075 -s 0 -d 2 -p cbr -e 50 -c 1 -i 5 -a 1 -x {0.0 3.0 5 ------- null}
h -t 1.0075 -s 0 -d 2 -p cbr -e 50 -c 1 -i 5 -a 1 -x {0.0 3.0 -1 ------- null}
r -t 1.00846 -s 2 -d 3 -p cbr -e 50 -c 1 -i 0 -a 1 -x {0.0 3.0 0 ------- null}
r -t 1.00866 -s 0 -d 2 -p cbr -e 50 -c 1 -i 3 -a 1 -x {0.0 3.0 3 ------- null}
+ -t 1.00866 -s 2 -d 3 -p cbr -e 50 -c 1 -i 3 -a 1 -x {0.0 3.0 3 ------- null}
- -t 1.00866 -s 2 -d 3 -p cbr -e 50 -c 1 -i 3 -a 1 -x {0.0 3.0 3 ------- null}
h -t 1.00866 -s 2 -d 3 -p cbr -e 50 -c 1 -i 3 -a 1 -x {0.0 3.0 -1 ------- null}
+ -t 1.009 -s 0 -d 2 -p cbr -e 50 -c 1 -i 6 -a 1 -x {0.0 3.0 6 ------- null}
- -t 1.009 -s 0 -d 2 -p cbr -e 50 -c 1 -i 6 -a 1 -x {0.0 3.0 6 ------- null}
h -t 1.009 -s 0 -d 2 -p cbr -e 50 -c 1 -i 6 -a 1 -x {0.0 3.0 -1 ------- null}
r -t 1.00996 -s 2 -d 3 -p cbr -e 50 -c 1 -i 1 -a 1 -x {0.0 3.0 1 ------- null}
r -t 1.01016 -s 0 -d 2 -p cbr -e 50 -c 1 -i 4 -a 1 -x {0.0 3.0 4 ------- null}
+ -t 1.01016 -s 2 -d 3 -p cbr -e 50 -c 1 -i 4 -a 1 -x {0.0 3.0 4 ------- null}
- -t 1.01016 -s 2 -d 3 -p cbr -e 50 -c 1 -i 4 -a 1 -x {0.0 3.0 4 ------- null}
h -t 1.01016 -s 2 -d 3 -p cbr -e 50 -c 1 -i 4 -a 1 -x {0.0 3.0 -1 ------- null}
+ -t 1.0105 -s 0 -d 2 -p cbr -e 50 -c 1 -i 7 -a 1 -x {0.0 3.0 7 ------- null}
- -t 1.0105 -s 0 -d 2 -p cbr -e 50 -c 1 -i 7 -a 1 -x {0.0 3.0 7 ------- null}
h -t 1.0105 -s 0 -d 2 -p cbr -e 50 -c 1 -i 7 -a 1 -x {0.0 3.0 -1 ------- null}
r -t 1.01146 -s 2 -d 3 -p cbr -e 50 -c 1 -i 2 -a 1 -x {0.0 3.0 2 ------- null}
r -t 1.01166 -s 0 -d 2 -p cbr -e 50 -c 1 -i 5 -a 1 -x {0.0 3.0 5 ------- null}
+ -t 1.01166 -s 2 -d 3 -p cbr -e 50 -c 1 -i 5 -a 1 -x {0.0 3.0 5 ------- null}
- -t 1.01166 -s 2 -d 3 -p cbr -e 50 -c 1 -i 5 -a 1 -x {0.0 3.0 5 ------- null}
h -t 1.01166 -s 2 -d 3 -p cbr -e 50 -c 1 -i 5 -a 1 -x {0.0 3.0 -1 ------- null}
+ -t 1.012 -s 0 -d 2 -p cbr -e 50 -c 1 -i 8 -a 1 -x {0.0 3.0 8 ------- null}
- -t 1.012 -s 0 -d 2 -p cbr -e 50 -c 1 -i 8 -a 1 -x {0.0 3.0 8 ------- null}
h -t 1.012 -s 0 -d 2 -p cbr -e 50 -c 1 -i 8 -a 1 -x {0.0 3.0 -1 ------- null}
r -t 1.01296 -s 2 -d 3 -p cbr -e 50 -c 1 -i 3 -a 1 -x {0.0 3.0 3 ------- null}
r -t 1.01316 -s 0 -d 2 -p cbr -e 50 -c 1 -i 6 -a 1 -x {0.0 3.0 6 ------- null}
+ -t 1.01316 -s 2 -d 3 -p cbr -e 50 -c 1 -i 6 -a 1 -x {0.0 3.0 6 ------- null}
- -t 1.01316 -s 2 -d 3 -p cbr -e 50 -c 1 -i 6 -a 1 -x {0.0 3.0 6 ------- null}
h -t 1.01316 -s 2 -d 3 -p cbr -e 50 -c 1 -i 6 -a 1 -x {0.0 3.0 -1 ------- null}
+ -t 1.0135 -s 0 -d 2 -p cbr -e 50 -c 1 -i 9 -a 1 -x {0.0 3.0 9 ------- null}
- -t 1.0135 -s 0 -d 2 -p cbr -e 50 -c 1 -i 9 -a 1 -x {0.0 3.0 9 ------- null}
h -t 1.0135 -s 0 -d 2 -p cbr -e 50 -c 1 -i 9 -a 1 -x {0.0 3.0 -1 ------- null}
r -t 1.01446 -s 2 -d 3 -p cbr -e 50 -c 1 -i 4 -a 1 -x {0.0 3.0 4 ------- null}
r -t 1.01466 -s 0 -d 2 -p cbr -e 50 -c 1 -i 7 -a 1 -x {0.0 3.0 7 ------- null}
+ -t 1.01466 -s 2 -d 3 -p cbr -e 50 -c 1 -i 7 -a 1 -x {0.0 3.0 7 ------- null}
- -t 1.01466 -s 2 -d 3 -p cbr -e 50 -c 1 -i 7 -a 1 -x {0.0 3.0 7 ------- null}
h -t 1.01466 -s 2 -d 3 -p cbr -e 50 -c 1 -i 7 -a 1 -x {0.0 3.0 -1 ------- null}
+ -t 1.015 -s 0 -d 2 -p cbr -e 50 -c 1 -i 10 -a 1 -x {0.0 3.0 10 ------- null}
- -t 1.015 -s 0 -d 2 -p cbr -e 50 -c 1 -i 10 -a 1 -x {0.0 3.0 10 ------- null}
h -t 1.015 -s 0 -d 2 -p cbr -e 50 -c 1 -i 10 -a 1 -x {0.0 3.0 -1 ------- null}
r -t 1.01596 -s 2 -d 3 -p cbr -e 50 -c 1 -i 5 -a 1 -x {0.0 3.0 5 ------- null}
r -t 1.01616 -s 0 -d 2 -p cbr -e 50 -c 1 -i 8 -a 1 -x {0.0 3.0 8 ------- null}
+ -t 1.01616 -s 2 -d 3 -p cbr -e 50 -c 1 -i 8 -a 1 -x {0.0 3.0 8 ------- null}
- -t 1.01616 -s 2 -d 3 -p cbr -e 50 -c 1 -i 8 -a 1 -x {0.0 3.0 8 ------- null}
h -t 1.01616 -s 2 -d 3 -p cbr -e 50 -c 1 -i 8 -a 1 -x {0.0 3.0 -1 ------- null}
+ -t 1.0165 -s 0 -d 2 -p cbr -e 50 -c 1 -i 11 -a 1 -x {0.0 3.0 11 ------- null}
- -t 1.0165 -s 0 -d 2 -p cbr -e 50 -c 1 -i 11 -a 1 -x {0.0 3.0 11 ------- null}
h -t 1.0165 -s 0 -d 2 -p cbr -e 50 -c 1 -i 11 -a 1 -x {0.0 3.0 -1 ------- null}
r -t 1.01746 -s 2 -d 3 -p cbr -e 50 -c 1 -i 6 -a 1 -x {0.0 3.0 6 ------- null}
r -t 1.01766 -s 0 -d 2 -p cbr -e 50 -c 1 -i 9 -a 1 -x {0.0 3.0 9 ------- null}
+ -t 1.01766 -s 2 -d 3 -p cbr -e 50 -c 1 -i 9 -a 1 -x {0.0 3.0 9 ------- null}
- -t 1.01766 -s 2 -d 3 -p cbr -e 50 -c 1 -i 9 -a 1 -x {0.0 3.0 9 ------- null}
h -t 1.01766 -s 2 -d 3 -p cbr -e 50 -c 1 -i 9 -a 1 -x {0.0 3.0 -1 ------- null}
+ -t 1.018 -s 0 -d 2 -p cbr -e 50 -c 1 -i 12 -a 1 -x {0.0 3.0 12 ------- null}
- -t 1.018 -s 0 -d 2 -p cbr -e 50 -c 1 -i 12 -a 1 -x {0.0 3.0 12 ------- null}
h -t 1.018 -s 0 -d 2 -p cbr -e 50 -c 1 -i 12 -a 1 -x {0.0 3.0 -1 ------- null}
r -t 1.01896 -s 2 -d 3 -p cbr -e 50 -c 1 -i 7 -a 1 -x {0.0 3.0 7 ------- null}
r -t 1.01916 -s 0 -d 2 -p cbr -e 50 -c 1 -i 10 -a 1 -x {0.0 3.0 10 ------- null}
+ -t 1.01916 -s 2 -d 3 -p cbr -e 50 -c 1 -i 10 -a 1 -x {0.0 3.0 10 ------- null}
- -t 1.01916 -s 2 -d 3 -p cbr -e 50 -c 1 -i 10 -a 1 -x {0.0 3.0 10 ------- null}
h -t 1.01916 -s 2 -d 3 -p cbr -e 50 -c 1 -i 10 -a 1 -x {0.0 3.0 -1 ------- null}
+ -t 1.0195 -s 0 -d 2 -p cbr -e 50 -c 1 -i 13 -a 1 -x {0.0 3.0 13 ------- null}
- -t 1.0195 -s 0 -d 2 -p cbr -e 50 -c 1 -i 13 -a 1 -x {0.0 3.0 13 ------- null}
h -t 1.0195 -s 0 -d 2 -p cbr -e 50 -c 1 -i 13 -a 1 -x {0.0 3.0 -1 ------- null}
r -t 1.02046 -s 2 -d 3 -p cbr -e 50 -c 1 -i 8 -a 1 -x {0.0 3.0 8 ------- null}
r -t 1.02066 -s 0 -d 2 -p cbr -e 50 -c 1 -i 11 -a 1 -x {0.0 3.0 11 ------- null}
+ -t 1.02066 -s 2 -d 3 -p cbr -e 50 -c 1 -i 11 -a 1 -x {0.0 3.0 11 ------- null}
- -t 1.02066 -s 2 -d 3 -p cbr -e 50 -c 1 -i 11 -a 1 -x {0.0 3.0 11 ------- null}
h -t 1.02066 -s 2 -d 3 -p cbr -e 50 -c 1 -i 11 -a 1 -x {0.0 3.0 -1 ------- null}
+ -t 1.021 -s 0 -d 2 -p cbr -e 50 -c 1 -i 14 -a 1 -x {0.0 3.0 14 ------- null}
- -t 1.021 -s 0 -d 2 -p cbr -e 50 -c 1 -i 14 -a 1 -x {0.0 3.0 14 ------- null}
h -t 1.021 -s 0 -d 2 -p cbr -e 50 -c 1 -i 14 -a 1 -x {0.0 3.0 -1 ------- null}
r -t 1.02196 -s 2 -d 3 -p cbr -e 50 -c 1 -i 9 -a 1 -x {0.0 3.0 9 ------- null}
r -t 1.02216 -s 0 -d 2 -p cbr -e 50 -c 1 -i 12 -a 1 -x {0.0 3.0 12 ------- null}
+ -t 1.02216 -s 2 -d 3 -p cbr -e 50 -c 1 -i 12 -a 1 -x {0.0 3.0 12 ------- null}
- -t 1.02216 -s 2 -d 3 -p cbr -e 50 -c 1 -i 12 -a 1 -x {0.0 3.0 12 ------- null}
h -t 1.02216 -s 2 -d 3 -p cbr -e 50 -c 1 -i 12 -a 1 -x {0.0 3.0 -1 ------- null}
+ -t 1.0225 -s 0 -d 2 -p cbr -e 50 -c 1 -i 15 -a 1 -x {0.0 3.0 15 ------- null}
- -t 1.0225 -s 0 -d 2 -p cbr -e 50 -c 1 -i 15 -a 1 -x {0.0 3.0 15 ------- null}
h -t 1.0225 -s 0 -d 2 -p cbr -e 50 -c 1 -i 15 -a 1 -x {0.0 3.0 -1 ------- null}
r -t 1.02346 -s 2 -d 3 -p cbr -e 50 -c 1 -i 10 -a 1 -x {0.0 3.0 10 ------- null}
r -t 1.02366 -s 0 -d 2 -p cbr -e 50 -c 1 -i 13 -a 1 -x {0.0 3.0 13 ------- null}
+ -t 1.02366 -s 2 -d 3 -p cbr -e 50 -c 1 -i 13 -a 1 -x {0.0 3.0 13 ------- null}
- -t 1.02366 -s 2 -d 3 -p cbr -e 50 -c 1 -i 13 -a 1 -x {0.0 3.0 13 ------- null}
h -t 1.02366 -s 2 -d 3 -p cbr -e 50 -c 1 -i 13 -a 1 -x {0.0 3.0 -1 ------- null}
+ -t 1.024 -s 0 -d 2 -p cbr -e 50 -c 1 -i 16 -a 1 -x {0.0 3.0 16 ------- null}
- -t 1.024 -s 0 -d 2 -p cbr -e 50 -c 1 -i 16 -a 1 -x {0.0 3.0 16 ------- null}
h -t 1.024 -s 0 -d 2 -p cbr -e 50 -c 1 -i 16 -a 1 -x {0.0 3.0 -1 ------- null}
r -t 1.02496 -s 2 -d 3 -p cbr -e 50 -c 1 -i 11 -a 1 -x {0.0 3.0 11 ------- null}
r -t 1.02516 -s 0 -d 2 -p cbr -e 50 -c 1 -i 14 -a 1 -x {0.0 3.0 14 ------- null}
+ -t 1.02516 -s 2 -d 3 -p cbr -e 50 -c 1 -i 14 -a 1 -x {0.0 3.0 14 ------- null}
- -t 1.02516 -s 2 -d 3 -p cbr -e 50 -c 1 -i 14 -a 1 -x {0.0 3.0 14 ------- null}
h -t 1.02516 -s 2 -d 3 -p cbr -e 50 -c 1 -i 14 -a 1 -x {0.0 3.0 -1 ------- null}
+ -t 1.0255 -s 0 -d 2 -p cbr -e 50 -c 1 -i 17 -a 1 -x {0.0 3.0 17 ------- null}
- -t 1.0255 -s 0 -d 2 -p cbr -e 50 -c 1 -i 17 -a 1 -x {0.0 3.0 17 ------- null}
h -t 1.0255 -s 0 -d 2 -p cbr -e 50 -c 1 -i 17 -a 1 -x {0.0 3.0 -1 ------- null}
r -t 1.02646 -s 2 -d 3 -p cbr -e 50 -c 1 -i 12 -a 1 -x {0.0 3.0 12 ------- null}
r -t 1.02666 -s 0 -d 2 -p cbr -e 50 -c 1 -i 15 -a 1 -x {0.0 3.0 15 ------- null}
+ -t 1.02666 -s 2 -d 3 -p cbr -e 50 -c 1 -i 15 -a 1 -x {0.0 3.0 15 ------- null}
- -t 1.02666 -s 2 -d 3 -p cbr -e 50 -c 1 -i 15 -a 1 -x {0.0 3.0 15 ------- null}
h -t 1.02666 -s 2 -d 3 -p cbr -e 50 -c 1 -i 15 -a 1 -x {0.0 3.0 -1 ------- null}
+ -t 1.027 -s 0 -d 2 -p cbr -e 50 -c 1 -i 18 -a 1 -x {0.0 3.0 18 ------- null}
- -t 1.027 -s 0 -d 2 -p cbr -e 50 -c 1 -i 18 -a 1 -x {0.0 3.0 18 ------- null}
h -t 1.027 -s 0 -d 2 -p cbr -e 50 -c 1 -i 18 -a 1 -x {0.0 3.0 -1 ------- null}
r -t 1.02796 -s 2 -d 3 -p cbr -e 50 -c 1 -i 13 -a 1 -x {0.0 3.0 13 ------- null}
r -t 1.02816 -s 0 -d 2 -p cbr -e 50 -c 1 -i 16 -a 1 -x {0.0 3.0 16 ------- null}
+ -t 1.02816 -s 2 -d 3 -p cbr -e 50 -c 1 -i 16 -a 1 -x {0.0 3.0 16 ------- null}
- -t 1.02816 -s 2 -d 3 -p cbr -e 50 -c 1 -i 16 -a 1 -x {0.0 3.0 16 ------- null}
h -t 1.02816 -s 2 -d 3 -p cbr -e 50 -c 1 -i 16 -a 1 -x {0.0 3.0 -1 ------- null}
+ -t 1.0285 -s 0 -d 2 -p cbr -e 50 -c 1 -i 19 -a 1 -x {0.0 3.0 19 ------- null}
- -t 1.0285 -s 0 -d 2 -p cbr -e 50 -c 1 -i 19 -a 1 -x {0.0 3.0 19 ------- null}
h -t 1.0285 -s 0 -d 2 -p cbr -e 50 -c 1 -i 19 -a 1 -x {0.0 3.0 -1 ------- null}
r -t 1.02946 -s 2 -d 3 -p cbr -e 50 -c 1 -i 14 -a 1 -x {0.0 3.0 14 ------- null}
r -t 1.02966 -s 0 -d 2 -p cbr -e 50 -c 1 -i 17 -a 1 -x {0.0 3.0 17 ------- null}
+ -t 1.02966 -s 2 -d 3 -p cbr -e 50 -c 1 -i 17 -a 1 -x {0.0 3.0 17 ------- null}
- -t 1.02966 -s 2 -d 3 -p cbr -e 50 -c 1 -i 17 -a 1 -x {0.0 3.0 17 ------- null}
h -t 1.02966 -s 2 -d 3 -p cbr -e 50 -c 1 -i 17 -a 1 -x {0.0 3.0 -1 ------- null}
+ -t 1.03 -s 0 -d 2 -p cbr -e 50 -c 1 -i 20 -a 1 -x {0.0 3.0 20 ------- null}
- -t 1.03 -s 0 -d 2 -p cbr -e 50 -c 1 -i 20 -a 1 -x {0.0 3.0 20 ------- null}
h -t 1.03 -s 0 -d 2 -p cbr -e 50 -c 1 -i 20 -a 1 -x {0.0 3.0 -1 ------- null}
r -t 1.03096 -s 2 -d 3 -p cbr -e 50 -c 1 -i 15 -a 1 -x {0.0 3.0 15 ------- null}
r -t 1.03116 -s 0 -d 2 -p cbr -e 50 -c 1 -i 18 -a 1 -x {0.0 3.0 18 ------- null}
+ -t 1.03116 -s 2 -d 3 -p cbr -e 50 -c 1 -i 18 -a 1 -x {0.0 3.0 18 ------- null}
- -t 1.03116 -s 2 -d 3 -p cbr -e 50 -c 1 -i 18 -a 1 -x {0.0 3.0 18 ------- null}
h -t 1.03116 -s 2 -d 3 -p cbr -e 50 -c 1 -i 18 -a 1 -x {0.0 3.0 -1 ------- null}
+ -t 1.0315 -s 0 -d 2 -p cbr -e 50 -c 1 -i 21 -a 1 -x {0.0 3.0 21 ------- null}
- -t 1.0315 -s 0 -d 2 -p cbr -e 50 -c 1 -i 21 -a 1 -x {0.0 3.0 21 ------- null}
h -t 1.0315 -s 0 -d 2 -p cbr -e 50 -c 1 -i 21 -a 1 -x {0.0 3.0 -1 ------- null}
r -t 1.03246 -s 2 -d 3 -p cbr -e 50 -c 1 -i 16 -a 1 -x {0.0 3.0 16 ------- null}
r -t 1.03266 -s 0 -d 2 -p cbr -e 50 -c 1 -i 19 -a 1 -x {0.0 3.0 19 ------- null}
+ -t 1.03266 -s 2 -d 3 -p cbr -e 50 -c 1 -i 19 -a 1 -x {0.0 3.0 19 ------- null}
- -t 1.03266 -s 2 -d 3 -p cbr -e 50 -c 1 -i 19 -a 1 -x {0.0 3.0 19 ------- null}
h -t 1.03266 -s 2 -d 3 -p cbr -e 50 -c 1 -i 19 -a 1 -x {0.0 3.0 -1 ------- null}
+ -t 1.033 -s 0 -d 2 -p cbr -e 50 -c 1 -i 22 -a 1 -x {0.0 3.0 22 ------- null}
- -t 1.033 -s 0 -d 2 -p cbr -e 50 -c 1 -i 22 -a 1 -x {0.0 3.0 22 ------- null}
h -t 1.033 -s 0 -d 2 -p cbr -e 50 -c 1 -i 22 -a 1 -x {0.0 3.0 -1 ------- null}
r -t 1.03396 -s 2 -d 3 -p cbr -e 50 -c 1 -i 17 -a 1 -x {0.0 3.0 17 ------- null}
r -t 1.03416 -s 0 -d 2 -p cbr -e 50 -c 1 -i 20 -a 1 -x {0.0 3.0 20 ------- null}
+ -t 1.03416 -s 2 -d 3 -p cbr -e 50 -c 1 -i 20 -a 1 -x {0.0 3.0 20 ------- null}
- -t 1.03416 -s 2 -d 3 -p cbr -e 50 -c 1 -i 20 -a 1 -x {0.0 3.0 20 ------- null}
h -t 1.03416 -s 2 -d 3 -p cbr -e 50 -c 1 -i 20 -a 1 -x {0.0 3.0 -1 ------- null}
+ -t 1.0345 -s 0 -d 2 -p cbr -e 50 -c 1 -i 23 -a 1 -x {0.0 3.0 23 ------- null}
- -t 1.0345 -s 0 -d 2 -p cbr -e 50 -c 1 -i 23 -a 1 -x {0.0 3.0 23 ------- null}
h -t 1.0345 -s 0 -d 2 -p cbr -e 50 -c 1 -i 23 -a 1 -x {0.0 3.0 -1 ------- null}
r -t 1.03546 -s 2 -d 3 -p cbr -e 50 -c 1 -i 18 -a 1 -x {0.0 3.0 18 ------- null}
r -t 1.03566 -s 0 -d 2 -p cbr -e 50 -c 1 -i 21 -a 1 -x {0.0 3.0 21 ------- null}
+ -t 1.03566 -s 2 -d 3 -p cbr -e 50 -c 1 -i 21 -a 1 -x {0.0 3.0 21 ------- null}
- -t 1.03566 -s 2 -d 3 -p cbr -e 50 -c 1 -i 21 -a 1 -x {0.0 3.0 21 ------- null}
h -t 1.03566 -s 2 -d 3 -p cbr -e 50 -c 1 -i 21 -a 1 -x {0.0 3.0 -1 ------- null}
+ -t 1.036 -s 0 -d 2 -p cbr -e 50 -c 1 -i 24 -a 1 -x {0.0 3.0 24 ------- null}
- -t 1.036 -s 0 -d 2 -p cbr -e 50 -c 1 -i 24 -a 1 -x {0.0 3.0 24 ------- null}
h -t 1.036 -s 0 -d 2 -p cbr -e 50 -c 1 -i 24 -a 1 -x {0.0 3.0 -1 ------- null}
r -t 1.03696 -s 2 -d 3 -p cbr -e 50 -c 1 -i 19 -a 1 -x {0.0 3.0 19 ------- null}
r -t 1.03716 -s 0 -d 2 -p cbr -e 50 -c 1 -i 22 -a 1 -x {0.0 3.0 22 ------- null}
+ -t 1.03716 -s 2 -d 3 -p cbr -e 50 -c 1 -i 22 -a 1 -x {0.0 3.0 22 ------- null}
- -t 1.03716 -s 2 -d 3 -p cbr -e 50 -c 1 -i 22 -a 1 -x {0.0 3.0 22 ------- null}
h -t 1.03716 -s 2 -d 3 -p cbr -e 50 -c 1 -i 22 -a 1 -x {0.0 3.0 -1 ------- null}
+ -t 1.0375 -s 0 -d 2 -p cbr -e 50 -c 1 -i 25 -a 1 -x {0.0 3.0 25 ------- null}
- -t 1.0375 -s 0 -d 2 -p cbr -e 50 -c 1 -i 25 -a 1 -x {0.0 3.0 25 ------- null}
h -t 1.0375 -s 0 -d 2 -p cbr -e 50 -c 1 -i 25 -a 1 -x {0.0 3.0 -1 ------- null}
r -t 1.03846 -s 2 -d 3 -p cbr -e 50 -c 1 -i 20 -a 1 -x {0.0 3.0 20 ------- null}
r -t 1.03866 -s 0 -d 2 -p cbr -e 50 -c 1 -i 23 -a 1 -x {0.0 3.0 23 ------- null}
+ -t 1.03866 -s 2 -d 3 -p cbr -e 50 -c 1 -i 23 -a 1 -x {0.0 3.0 23 ------- null}
- -t 1.03866 -s 2 -d 3 -p cbr -e 50 -c 1 -i 23 -a 1 -x {0.0 3.0 23 ------- null}
h -t 1.03866 -s 2 -d 3 -p cbr -e 50 -c 1 -i 23 -a 1 -x {0.0 3.0 -1 ------- null}
+ -t 1.039 -s 0 -d 2 -p cbr -e 50 -c 1 -i 26 -a 1 -x {0.0 3.0 26 ------- null}
- -t 1.039 -s 0 -d 2 -p cbr -e 50 -c 1 -i 26 -a 1 -x {0.0 3.0 26 ------- null}
h -t 1.039 -s 0 -d 2 -p cbr -e 50 -c 1 -i 26 -a 1 -x {0.0 3.0 -1 ------- null}
r -t 1.03996 -s 2 -d 3 -p cbr -e 50 -c 1 -i 21 -a 1 -x {0.0 3.0 21 ------- null}
r -t 1.04016 -s 0 -d 2 -p cbr -e 50 -c 1 -i 24 -a 1 -x {0.0 3.0 24 ------- null}
+ -t 1.04016 -s 2 -d 3 -p cbr -e 50 -c 1 -i 24 -a 1 -x {0.0 3.0 24 ------- null}
- -t 1.04016 -s 2 -d 3 -p cbr -e 50 -c 1 -i 24 -a 1 -x {0.0 3.0 24 ------- null}
h -t 1.04016 -s 2 -d 3 -p cbr -e 50 -c 1 -i 24 -a 1 -x {0.0 3.0 -1 ------- null}
+ -t 1.0405 -s 0 -d 2 -p cbr -e 50 -c 1 -i 27 -a 1 -x {0.0 3.0 27 ------- null}
- -t 1.0405 -s 0 -d 2 -p cbr -e 50 -c 1 -i 27 -a 1 -x {0.0 3.0 27 ------- null}
h -t 1.0405 -s 0 -d 2 -p cbr -e 50 -c 1 -i 27 -a 1 -x {0.0 3.0 -1 ------- null}
r -t 1.04146 -s 2 -d 3 -p cbr -e 50 -c 1 -i 22 -a 1 -x {0.0 3.0 22 ------- null}
r -t 1.04166 -s 0 -d 2 -p cbr -e 50 -c 1 -i 25 -a 1 -x {0.0 3.0 25 ------- null}
+ -t 1.04166 -s 2 -d 3 -p cbr -e 50 -c 1 -i 25 -a 1 -x {0.0 3.0 25 ------- null}
- -t 1.04166 -s 2 -d 3 -p cbr -e 50 -c 1 -i 25 -a 1 -x {0.0 3.0 25 ------- null}
h -t 1.04166 -s 2 -d 3 -p cbr -e 50 -c 1 -i 25 -a 1 -x {0.0 3.0 -1 ------- null}
+ -t 1.042 -s 0 -d 2 -p cbr -e 50 -c 1 -i 28 -a 1 -x {0.0 3.0 28 ------- null}
- -t 1.042 -s 0 -d 2 -p cbr -e 50 -c 1 -i 28 -a 1 -x {0.0 3.0 28 ------- null}
h -t 1.042 -s 0 -d 2 -p cbr -e 50 -c 1 -i 28 -a 1 -x {0.0 3.0 -1 ------- null}
r -t 1.04296 -s 2 -d 3 -p cbr -e 50 -c 1 -i 23 -a 1 -x {0.0 3.0 23 ------- null}
r -t 1.04316 -s 0 -d 2 -p cbr -e 50 -c 1 -i 26 -a 1 -x {0.0 3.0 26 ------- null}
+ -t 1.04316 -s 2 -d 3 -p cbr -e 50 -c 1 -i 26 -a 1 -x {0.0 3.0 26 ------- null}
- -t 1.04316 -s 2 -d 3 -p cbr -e 50 -c 1 -i 26 -a 1 -x {0.0 3.0 26 ------- null}
h -t 1.04316 -s 2 -d 3 -p cbr -e 50 -c 1 -i 26 -a 1 -x {0.0 3.0 -1 ------- null}
+ -t 1.0435 -s 0 -d 2 -p cbr -e 50 -c 1 -i 29 -a 1 -x {0.0 3.0 29 ------- null}
- -t 1.0435 -s 0 -d 2 -p cbr -e 50 -c 1 -i 29 -a 1 -x {0.0 3.0 29 ------- null}
h -t 1.0435 -s 0 -d 2 -p cbr -e 50 -c 1 -i 29 -a 1 -x {0.0 3.0 -1 ------- null}
r -t 1.04446 -s 2 -d 3 -p cbr -e 50 -c 1 -i 24 -a 1 -x {0.0 3.0 24 ------- null}
r -t 1.04466 -s 0 -d 2 -p cbr -e 50 -c 1 -i 27 -a 1 -x {0.0 3.0 27 ------- null}
+ -t 1.04466 -s 2 -d 3 -p cbr -e 50 -c 1 -i 27 -a 1 -x {0.0 3.0 27 ------- null}
- -t 1.04466 -s 2 -d 3 -p cbr -e 50 -c 1 -i 27 -a 1 -x {0.0 3.0 27 ------- null}
h -t 1.04466 -s 2 -d 3 -p cbr -e 50 -c 1 -i 27 -a 1 -x {0.0 3.0 -1 ------- null}
+ -t 1.045 -s 0 -d 2 -p cbr -e 50 -c 1 -i 30 -a 1 -x {0.0 3.0 30 ------- null}
- -t 1.045 -s 0 -d 2 -p cbr -e 50 -c 1 -i 30 -a 1 -x {0.0 3.0 30 ------- null}
h -t 1.045 -s 0 -d 2 -p cbr -e 50 -c 1 -i 30 -a 1 -x {0.0 3.0 -1 ------- null}
r -t 1.04596 -s 2 -d 3 -p cbr -e 50 -c 1 -i 25 -a 1 -x {0.0 3.0 25 ------- null}
r -t 1.04616 -s 0 -d 2 -p cbr -e 50 -c 1 -i 28 -a 1 -x {0.0 3.0 28 ------- null}
+ -t 1.04616 -s 2 -d 3 -p cbr -e 50 -c 1 -i 28 -a 1 -x {0.0 3.0 28 ------- null}
- -t 1.04616 -s 2 -d 3 -p cbr -e 50 -c 1 -i 28 -a 1 -x {0.0 3.0 28 ------- null}
h -t 1.04616 -s 2 -d 3 -p cbr -e 50 -c 1 -i 28 -a 1 -x {0.0 3.0 -1 ------- null}
+ -t 1.0465 -s 0 -d 2 -p cbr -e 50 -c 1 -i 31 -a 1 -x {0.0 3.0 31 ------- null}
- -t 1.0465 -s 0 -d 2 -p cbr -e 50 -c 1 -i 31 -a 1 -x {0.0 3.0 31 ------- null}
h -t 1.0465 -s 0 -d 2 -p cbr -e 50 -c 1 -i 31 -a 1 -x {0.0 3.0 -1 ------- null}
r -t 1.04746 -s 2 -d 3 -p cbr -e 50 -c 1 -i 26 -a 1 -x {0.0 3.0 26 ------- null}
r -t 1.04766 -s 0 -d 2 -p cbr -e 50 -c 1 -i 29 -a 1 -x {0.0 3.0 29 ------- null}
+ -t 1.04766 -s 2 -d 3 -p cbr -e 50 -c 1 -i 29 -a 1 -x {0.0 3.0 29 ------- null}
- -t 1.04766 -s 2 -d 3 -p cbr -e 50 -c 1 -i 29 -a 1 -x {0.0 3.0 29 ------- null}
h -t 1.04766 -s 2 -d 3 -p cbr -e 50 -c 1 -i 29 -a 1 -x {0.0 3.0 -1 ------- null}
+ -t 1.048 -s 0 -d 2 -p cbr -e 50 -c 1 -i 32 -a 1 -x {0.0 3.0 32 ------- null}
- -t 1.048 -s 0 -d 2 -p cbr -e 50 -c 1 -i 32 -a 1 -x {0.0 3.0 32 ------- null}
h -t 1.048 -s 0 -d 2 -p cbr -e 50 -c 1 -i 32 -a 1 -x {0.0 3.0 -1 ------- null}
r -t 1.04896 -s 2 -d 3 -p cbr -e 50 -c 1 -i 27 -a 1 -x {0.0 3.0 27 ------- null}
r -t 1.04916 -s 0 -d 2 -p cbr -e 50 -c 1 -i 30 -a 1 -x {0.0 3.0 30 ------- null}
+ -t 1.04916 -s 2 -d 3 -p cbr -e 50 -c 1 -i 30 -a 1 -x {0.0 3.0 30 ------- null}
- -t 1.04916 -s 2 -d 3 -p cbr -e 50 -c 1 -i 30 -a 1 -x {0.0 3.0 30 ------- null}
h -t 1.04916 -s 2 -d 3 -p cbr -e 50 -c 1 -i 30 -a 1 -x {0.0 3.0 -1 ------- null}
+ -t 1.0495 -s 0 -d 2 -p cbr -e 50 -c 1 -i 33 -a 1 -x {0.0 3.0 33 ------- null}
- -t 1.0495 -s 0 -d 2 -p cbr -e 50 -c 1 -i 33 -a 1 -x {0.0 3.0 33 ------- null}
h -t 1.0495 -s 0 -d 2 -p cbr -e 50 -c 1 -i 33 -a 1 -x {0.0 3.0 -1 ------- null}
r -t 1.05046 -s 2 -d 3 -p cbr -e 50 -c 1 -i 28 -a 1 -x {0.0 3.0 28 ------- null}
r -t 1.05066 -s 0 -d 2 -p cbr -e 50 -c 1 -i 31 -a 1 -x {0.0 3.0 31 ------- null}
+ -t 1.05066 -s 2 -d 3 -p cbr -e 50 -c 1 -i 31 -a 1 -x {0.0 3.0 31 ------- null}
- -t 1.05066 -s 2 -d 3 -p cbr -e 50 -c 1 -i 31 -a 1 -x {0.0 3.0 31 ------- null}
h -t 1.05066 -s 2 -d 3 -p cbr -e 50 -c 1 -i 31 -a 1 -x {0.0 3.0 -1 ------- null}
+ -t 1.051 -s 0 -d 2 -p cbr -e 50 -c 1 -i 34 -a 1 -x {0.0 3.0 34 ------- null}
- -t 1.051 -s 0 -d 2 -p cbr -e 50 -c 1 -i 34 -a 1 -x {0.0 3.0 34 ------- null}
h -t 1.051 -s 0 -d 2 -p cbr -e 50 -c 1 -i 34 -a 1 -x {0.0 3.0 -1 ------- null}
r -t 1.05196 -s 2 -d 3 -p cbr -e 50 -c 1 -i 29 -a 1 -x {0.0 3.0 29 ------- null}
r -t 1.05216 -s 0 -d 2 -p cbr -e 50 -c 1 -i 32 -a 1 -x {0.0 3.0 32 ------- null}
+ -t 1.05216 -s 2 -d 3 -p cbr -e 50 -c 1 -i 32 -a 1 -x {0.0 3.0 32 ------- null}
- -t 1.05216 -s 2 -d 3 -p cbr -e 50 -c 1 -i 32 -a 1 -x {0.0 3.0 32 ------- null}
h -t 1.05216 -s 2 -d 3 -p cbr -e 50 -c 1 -i 32 -a 1 -x {0.0 3.0 -1 ------- null}
+ -t 1.0525 -s 0 -d 2 -p cbr -e 50 -c 1 -i 35 -a 1 -x {0.0 3.0 35 ------- null}
- -t 1.0525 -s 0 -d 2 -p cbr -e 50 -c 1 -i 35 -a 1 -x {0.0 3.0 35 ------- null}
h -t 1.0525 -s 0 -d 2 -p cbr -e 50 -c 1 -i 35 -a 1 -x {0.0 3.0 -1 ------- null}
r -t 1.05346 -s 2 -d 3 -p cbr -e 50 -c 1 -i 30 -a 1 -x {0.0 3.0 30 ------- null}
r -t 1.05366 -s 0 -d 2 -p cbr -e 50 -c 1 -i 33 -a 1 -x {0.0 3.0 33 ------- null}
+ -t 1.05366 -s 2 -d 3 -p cbr -e 50 -c 1 -i 33 -a 1 -x {0.0 3.0 33 ------- null}
- -t 1.05366 -s 2 -d 3 -p cbr -e 50 -c 1 -i 33 -a 1 -x {0.0 3.0 33 ------- null}
h -t 1.05366 -s 2 -d 3 -p cbr -e 50 -c 1 -i 33 -a 1 -x {0.0 3.0 -1 ------- null}
+ -t 1.054 -s 0 -d 2 -p cbr -e 50 -c 1 -i 36 -a 1 -x {0.0 3.0 36 ------- null}
- -t 1.054 -s 0 -d 2 -p cbr -e 50 -c 1 -i 36 -a 1 -x {0.0 3.0 36 ------- null}
h -t 1.054 -s 0 -d 2 -p cbr -e 50 -c 1 -i 36 -a 1 -x {0.0 3.0 -1 ------- null}
r -t 1.05496 -s 2 -d 3 -p cbr -e 50 -c 1 -i 31 -a 1 -x {0.0 3.0 31 ------- null}
r -t 1.05516 -s 0 -d 2 -p cbr -e 50 -c 1 -i 34 -a 1 -x {0.0 3.0 34 ------- null}
+ -t 1.05516 -s 2 -d 3 -p cbr -e 50 -c 1 -i 34 -a 1 -x {0.0 3.0 34 ------- null}
- -t 1.05516 -s 2 -d 3 -p cbr -e 50 -c 1 -i 34 -a 1 -x {0.0 3.0 34 ------- null}
h -t 1.05516 -s 2 -d 3 -p cbr -e 50 -c 1 -i 34 -a 1 -x {0.0 3.0 -1 ------- null}
+ -t 1.0555 -s 0 -d 2 -p cbr -e 50 -c 1 -i 37 -a 1 -x {0.0 3.0 37 ------- null}
- -t 1.0555 -s 0 -d 2 -p cbr -e 50 -c 1 -i 37 -a 1 -x {0.0 3.0 37 ------- null}
h -t 1.0555 -s 0 -d 2 -p cbr -e 50 -c 1 -i 37 -a 1 -x {0.0 3.0 -1 ------- null}
r -t 1.05646 -s 2 -d 3 -p cbr -e 50 -c 1 -i 32 -a 1 -x {0.0 3.0 32 ------- null}
r -t 1.05666 -s 0 -d 2 -p cbr -e 50 -c 1 -i 35 -a 1 -x {0.0 3.0 35 ------- null}
+ -t 1.05666 -s 2 -d 3 -p cbr -e 50 -c 1 -i 35 -a 1 -x {0.0 3.0 35 ------- null}
- -t 1.05666 -s 2 -d 3 -p cbr -e 50 -c 1 -i 35 -a 1 -x {0.0 3.0 35 ------- null}
h -t 1.05666 -s 2 -d 3 -p cbr -e 50 -c 1 -i 35 -a 1 -x {0.0 3.0 -1 ------- null}
+ -t 1.057 -s 0 -d 2 -p cbr -e 50 -c 1 -i 38 -a 1 -x {0.0 3.0 38 ------- null}
- -t 1.057 -s 0 -d 2 -p cbr -e 50 -c 1 -i 38 -a 1 -x {0.0 3.0 38 ------- null}
h -t 1.057 -s 0 -d 2 -p cbr -e 50 -c 1 -i 38 -a 1 -x {0.0 3.0 -1 ------- null}
r -t 1.05796 -s 2 -d 3 -p cbr -e 50 -c 1 -i 33 -a 1 -x {0.0 3.0 33 ------- null}
r -t 1.05816 -s 0 -d 2 -p cbr -e 50 -c 1 -i 36 -a 1 -x {0.0 3.0 36 ------- null}
+ -t 1.05816 -s 2 -d 3 -p cbr -e 50 -c 1 -i 36 -a 1 -x {0.0 3.0 36 ------- null}
- -t 1.05816 -s 2 -d 3 -p cbr -e 50 -c 1 -i 36 -a 1 -x {0.0 3.0 36 ------- null}
h -t 1.05816 -s 2 -d 3 -p cbr -e 50 -c 1 -i 36 -a 1 -x {0.0 3.0 -1 ------- null}
+ -t 1.0585 -s 0 -d 2 -p cbr -e 50 -c 1 -i 39 -a 1 -x {0.0 3.0 39 ------- null}
- -t 1.0585 -s 0 -d 2 -p cbr -e 50 -c 1 -i 39 -a 1 -x {0.0 3.0 39 ------- null}
h -t 1.0585 -s 0 -d 2 -p cbr -e 50 -c 1 -i 39 -a 1 -x {0.0 3.0 -1 ------- null}
r -t 1.05946 -s 2 -d 3 -p cbr -e 50 -c 1 -i 34 -a 1 -x {0.0 3.0 34 ------- null}
r -t 1.05966 -s 0 -d 2 -p cbr -e 50 -c 1 -i 37 -a 1 -x {0.0 3.0 37 ------- null}
+ -t 1.05966 -s 2 -d 3 -p cbr -e 50 -c 1 -i 37 -a 1 -x {0.0 3.0 37 ------- null}
- -t 1.05966 -s 2 -d 3 -p cbr -e 50 -c 1 -i 37 -a 1 -x {0.0 3.0 37 ------- null}
h -t 1.05966 -s 2 -d 3 -p cbr -e 50 -c 1 -i 37 -a 1 -x {0.0 3.0 -1 ------- null}
+ -t 1.06 -s 0 -d 2 -p cbr -e 50 -c 1 -i 40 -a 1 -x {0.0 3.0 40 ------- null}
- -t 1.06 -s 0 -d 2 -p cbr -e 50 -c 1 -i 40 -a 1 -x {0.0 3.0 40 ------- null}
h -t 1.06 -s 0 -d 2 -p cbr -e 50 -c 1 -i 40 -a 1 -x {0.0 3.0 -1 ------- null}
r -t 1.06096 -s 2 -d 3 -p cbr -e 50 -c 1 -i 35 -a 1 -x {0.0 3.0 35 ------- null}
r -t 1.06116 -s 0 -d 2 -p cbr -e 50 -c 1 -i 38 -a 1 -x {0.0 3.0 38 ------- null}
+ -t 1.06116 -s 2 -d 3 -p cbr -e 50 -c 1 -i 38 -a 1 -x {0.0 3.0 38 ------- null}
- -t 1.06116 -s 2 -d 3 -p cbr -e 50 -c 1 -i 38 -a 1 -x {0.0 3.0 38 ------- null}
h -t 1.06116 -s 2 -d 3 -p cbr -e 50 -c 1 -i 38 -a 1 -x {0.0 3.0 -1 ------- null}
+ -t 1.0615 -s 0 -d 2 -p cbr -e 50 -c 1 -i 41 -a 1 -x {0.0 3.0 41 ------- null}
- -t 1.0615 -s 0 -d 2 -p cbr -e 50 -c 1 -i 41 -a 1 -x {0.0 3.0 41 ------- null}
h -t 1.0615 -s 0 -d 2 -p cbr -e 50 -c 1 -i 41 -a 1 -x {0.0 3.0 -1 ------- null}
r -t 1.06246 -s 2 -d 3 -p cbr -e 50 -c 1 -i 36 -a 1 -x {0.0 3.0 36 ------- null}
r -t 1.06266 -s 0 -d 2 -p cbr -e 50 -c 1 -i 39 -a 1 -x {0.0 3.0 39 ------- null}
+ -t 1.06266 -s 2 -d 3 -p cbr -e 50 -c 1 -i 39 -a 1 -x {0.0 3.0 39 ------- null}
- -t 1.06266 -s 2 -d 3 -p cbr -e 50 -c 1 -i 39 -a 1 -x {0.0 3.0 39 ------- null}
h -t 1.06266 -s 2 -d 3 -p cbr -e 50 -c 1 -i 39 -a 1 -x {0.0 3.0 -1 ------- null}
+ -t 1.063 -s 0 -d 2 -p cbr -e 50 -c 1 -i 42 -a 1 -x {0.0 3.0 42 ------- null}
- -t 1.063 -s 0 -d 2 -p cbr -e 50 -c 1 -i 42 -a 1 -x {0.0 3.0 42 ------- null}
h -t 1.063 -s 0 -d 2 -p cbr -e 50 -c 1 -i 42 -a 1 -x {0.0 3.0 -1 ------- null}
r -t 1.06396 -s 2 -d 3 -p cbr -e 50 -c 1 -i 37 -a 1 -x {0.0 3.0 37 ------- null}
r -t 1.06416 -s 0 -d 2 -p cbr -e 50 -c 1 -i 40 -a 1 -x {0.0 3.0 40 ------- null}
+ -t 1.06416 -s 2 -d 3 -p cbr -e 50 -c 1 -i 40 -a 1 -x {0.0 3.0 40 ------- null}
- -t 1.06416 -s 2 -d 3 -p cbr -e 50 -c 1 -i 40 -a 1 -x {0.0 3.0 40 ------- null}
h -t 1.06416 -s 2 -d 3 -p cbr -e 50 -c 1 -i 40 -a 1 -x {0.0 3.0 -1 ------- null}
+ -t 1.0645 -s 0 -d 2 -p cbr -e 50 -c 1 -i 43 -a 1 -x {0.0 3.0 43 ------- null}
- -t 1.0645 -s 0 -d 2 -p cbr -e 50 -c 1 -i 43 -a 1 -x {0.0 3.0 43 ------- null}
h -t 1.0645 -s 0 -d 2 -p cbr -e 50 -c 1 -i 43 -a 1 -x {0.0 3.0 -1 ------- null}
r -t 1.06546 -s 2 -d 3 -p cbr -e 50 -c 1 -i 38 -a 1 -x {0.0 3.0 38 ------- null}
r -t 1.06566 -s 0 -d 2 -p cbr -e 50 -c 1 -i 41 -a 1 -x {0.0 3.0 41 ------- null}
+ -t 1.06566 -s 2 -d 3 -p cbr -e 50 -c 1 -i 41 -a 1 -x {0.0 3.0 41 ------- null}
- -t 1.06566 -s 2 -d 3 -p cbr -e 50 -c 1 -i 41 -a 1 -x {0.0 3.0 41 ------- null}
h -t 1.06566 -s 2 -d 3 -p cbr -e 50 -c 1 -i 41 -a 1 -x {0.0 3.0 -1 ------- null}
+ -t 1.066 -s 0 -d 2 -p cbr -e 50 -c 1 -i 44 -a 1 -x {0.0 3.0 44 ------- null}
- -t 1.066 -s 0 -d 2 -p cbr -e 50 -c 1 -i 44 -a 1 -x {0.0 3.0 44 ------- null}
h -t 1.066 -s 0 -d 2 -p cbr -e 50 -c 1 -i 44 -a 1 -x {0.0 3.0 -1 ------- null}
r -t 1.06696 -s 2 -d 3 -p cbr -e 50 -c 1 -i 39 -a 1 -x {0.0 3.0 39 ------- null}
r -t 1.06716 -s 0 -d 2 -p cbr -e 50 -c 1 -i 42 -a 1 -x {0.0 3.0 42 ------- null}
+ -t 1.06716 -s 2 -d 3 -p cbr -e 50 -c 1 -i 42 -a 1 -x {0.0 3.0 42 ------- null}
- -t 1.06716 -s 2 -d 3 -p cbr -e 50 -c 1 -i 42 -a 1 -x {0.0 3.0 42 ------- null}
h -t 1.06716 -s 2 -d 3 -p cbr -e 50 -c 1 -i 42 -a 1 -x {0.0 3.0 -1 ------- null}
+ -t 1.0675 -s 0 -d 2 -p cbr -e 50 -c 1 -i 45 -a 1 -x {0.0 3.0 45 ------- null}
- -t 1.0675 -s 0 -d 2 -p cbr -e 50 -c 1 -i 45 -a 1 -x {0.0 3.0 45 ------- null}
h -t 1.0675 -s 0 -d 2 -p cbr -e 50 -c 1 -i 45 -a 1 -x {0.0 3.0 -1 ------- null}
r -t 1.06846 -s 2 -d 3 -p cbr -e 50 -c 1 -i 40 -a 1 -x {0.0 3.0 40 ------- null}
r -t 1.06866 -s 0 -d 2 -p cbr -e 50 -c 1 -i 43 -a 1 -x {0.0 3.0 43 ------- null}
+ -t 1.06866 -s 2 -d 3 -p cbr -e 50 -c 1 -i 43 -a 1 -x {0.0 3.0 43 ------- null}
- -t 1.06866 -s 2 -d 3 -p cbr -e 50 -c 1 -i 43 -a 1 -x {0.0 3.0 43 ------- null}
h -t 1.06866 -s 2 -d 3 -p cbr -e 50 -c 1 -i 43 -a 1 -x {0.0 3.0 -1 ------- null}
+ -t 1.069 -s 0 -d 2 -p cbr -e 50 -c 1 -i 46 -a 1 -x {0.0 3.0 46 ------- null}
- -t 1.069 -s 0 -d 2 -p cbr -e 50 -c 1 -i 46 -a 1 -x {0.0 3.0 46 ------- null}
h -t 1.069 -s 0 -d 2 -p cbr -e 50 -c 1 -i 46 -a 1 -x {0.0 3.0 -1 ------- null}
r -t 1.06996 -s 2 -d 3 -p cbr -e 50 -c 1 -i 41 -a 1 -x {0.0 3.0 41 ------- null}
r -t 1.07016 -s 0 -d 2 -p cbr -e 50 -c 1 -i 44 -a 1 -x {0.0 3.0 44 ------- null}
+ -t 1.07016 -s 2 -d 3 -p cbr -e 50 -c 1 -i 44 -a 1 -x {0.0 3.0 44 ------- null}
- -t 1.07016 -s 2 -d 3 -p cbr -e 50 -c 1 -i 44 -a 1 -x {0.0 3.0 44 ------- null}
h -t 1.07016 -s 2 -d 3 -p cbr -e 50 -c 1 -i 44 -a 1 -x {0.0 3.0 -1 ------- null}
+ -t 1.0705 -s 0 -d 2 -p cbr -e 50 -c 1 -i 47 -a 1 -x {0.0 3.0 47 ------- null}
- -t 1.0705 -s 0 -d 2 -p cbr -e 50 -c 1 -i 47 -a 1 -x {0.0 3.0 47 ------- null}
h -t 1.0705 -s 0 -d 2 -p cbr -e 50 -c 1 -i 47 -a 1 -x {0.0 3.0 -1 ------- null}
r -t 1.07146 -s 2 -d 3 -p cbr -e 50 -c 1 -i 42 -a 1 -x {0.0 3.0 42 ------- null}
r -t 1.07166 -s 0 -d 2 -p cbr -e 50 -c 1 -i 45 -a 1 -x {0.0 3.0 45 ------- null}