V -t * -v 1.0a5 -a 0
A -t * -n 1 -p 0 -o 0x7fffffff -c 30 -a 1
A -t * -h 1 -m 1073741823 -s 0
c -t * -i 1 -n yellow
c -t * -i 2 -n orange
n -t * -a 0 -s 0 -S UP -v Circle -c Blue -i Blue
n -t * -a 1 -s 1 -S UP -v Circle -c Green -i Green
n -t * -a 2 -s 2 -S UP -v Square -c black -i black
n -t * -a 3 -s 3 -S UP -v Circle -c black -i black
l -t * -s 0 -d 2 -S UP -r 2500000 -D 0.0035000000000000001 -c red -o right-down
l -t * -s 1 -d 2 -S UP -r 1500000 -D 0.0045000000000000005 -c red -o right-up
l -t * -s 2 -d 3 -S UP -r 1500000 -D 0.0050000000000000001 -c cyan -o right
q -t * -s 0 -d 2 -a 1.75
q -t * -s 1 -d 2 -a 0.25
q -t * -s 2 -d 3 -a 0.0
+ -t 1 -s 0 -d 2 -p cbr -e 50 -c 1 -i 0 -a 1 -x {0.0 3.0 0 ------- null}
- -t 1 -s 0 -d 2 -p cbr -e 50 -c 1 -i 0 -a 1 -x {0.0 3.0 0 ------- null}
h -t 1 -s 0 -d 2 -p cbr -e 50 -c 1 -i 0 -a 1 -x {0.0 3.0 -1 ------- null}
+ -t 1.0015 -s 0 -d 2 -p cbr -e 50 -c 1 -i 1 -a 1 -x {0.0 3.0 1 ------- null}
- -t 1.0015 -s 0 -d 2 -p cbr -e 50 -c 1 -i 1 -a 1 -x {0.0 3.0 1 ------- null}
h -t 1.0015 -s 0 -d 2 -p cbr -e 50 -c 1 -i 1 -a 1 -x {0.0 3.0 -1 ------- null}
+ -t 1.003 -s 0 -d 2 -p cbr -e 50 -c 1 -i 2 -a 1 -x {0.0 3.0 2 ------- null}
- -t 1.003 -s 0 -d 2 -p cbr -e 50 -c 1 -i 2 -a 1 -x {0.0 3.0 2 ------- null}
h -t 1.003 -s 0 -d 2 -p cbr -e 50 -c 1 -i 2 -a 1 -x {0.0 3.0 -1 ------- null}
r -t 1.00366 -s 0 -d 2 -p cbr -e 50 -c 1 -i 0 -a 1 -x {0.0 3.0 0 ------- null}
+ -t 1.00366 -s 2 -d 3 -p cbr -e 50 -c 1 -i 0 -a 1 -x {0.0 3.0 0 ------- null}
- -t 1.00366 -s 2 -d 3 -p cbr -e 50 -c 1 -i 0 -a 1 -x {0.0 3.0 0 ------- null}
h -t 1.00366 -s 2 -d 3 -p cbr -e 50 -c 1 -i 0 -a 1 -x {0.0 3.0 -1 ------- null}
+ -t 1.0045 -s 0 -d 2 -p cbr -e 50 -c 1 -i 3 -a 1 -x {0.0 3.0 3 ------- null}
- -t 1.0045 -s 0 -d 2 -p cbr -e 50 -c 1 -i 3 -a 1 -x {0.0 3.0 3 ------- null}
h -t 1.0045 -s 0 -d 2 -p cbr -e 50 -c 1 -i 3 -a 1 -x {0.0 3.0 -1 ------- null}
r -t 1.00516 -s 0 -d 2 -p cbr -e 50 -c 1 -i 1 -a 1 -x {0.0 3.0 1 ------- null}
+ -t 1.00516 -s 2 -d 3 -p cbr -e 50 -c 1 -i 1 -a 1 -x {0.0 3.0 1 ------- null}
- -t 1.00516 -s 2 -d 3 -p cbr -e 50 -c 1 -i 1 -a 1 -x {0.0 3.0 1 ------- null}
h -t 1.00516 -s 2 -d 3 -p cbr -e 50 -c 1 -i 1 -a 1 -x {0.0 3.0 -1 ------- null}
+ -t 1.006 -s 0 -d 2 -p cbr -e 50 -c 1 -i 4 -a 1 -x {0.0 3.0 4 ------- null}
- -t 1.006 -s 0 -d 2 -p cbr -e 50 -c 1 -i 4 -a 1 -x {0.0 3.0 4 ------- null}
h -t 1.006 -s 0 -d 2 -p cbr -e 50 -c 1 -i 4 -a 1 -x {0.0 3.0 -1 ------- null}
r -t 1.00666 -s 0 -d 2 -p cbr -e 50 -c 1 -i 2 -a 1 -x {0.0 3.0 2 ------- null}
+ -t 1.00666 -s 2 -d 3 -p cbr -e 50 -c 1 -i 2 -a 1 -x {0.0 3.0 2 ------- null}
- -t 1.00666 -s 2 -d 3 -p cbr -e 50 -c 1 -i 2 -a 1 -x {0.0 3.0 2 ------- null}
h -t 1.00666 -s 2 -d 3 -p cbr -e 50 -c 1 -i 2 -a 1 -x {0.0 3.0 -1 ------- null}
+ -t 1.0075 -s 0 -d 2 -p cbr -e 50 -c 1 -i 5 -a 1 -x {0.0 3.0 5 ------- null}
- -t 1.0075 -s 0 -d 2 -p cbr -e 50 -c 1 -i 5 -a 1 -x {0.0 3.0 5 ------- null}
h -t 1.0075 -s 0 -d 2 -p cbr -e 50 -c 1 -i 5 -a 1 -x {0.0 3.0 -1 ------- null}
r -t 1.00816 -s 0 -d 2 -p cbr -e 50 -c 1 -i 3 -a 1 -x {0.0 3.0 3 ------- null}
+ -t 1.00816 -s 2 -d 3 -p cbr -e 50 -c 1 -i 3 -a 1 -x {0.0 3.0 3 ------- null}
- -t 1.00816 -s 2 -d 3 -p cbr -e 50 -c 1 -i 3 -a 1 -x {0.0 3.0 3 ------- null}
h -t 1.00816 -s 2 -d 3 -p cbr -e 50 -c 1 -i 3 -a 1 -x {0.0 3.0 -1 ------- null}
r -t 1.00892666666667 -s 2 -d 3 -p cbr -e 50 -c 1 -i 0 -a 1 -x {0.0 3.0 0 ------- null}
+ -t 1.009 -s 0 -d 2 -p cbr -e 50 -c 1 -i 6 -a 1 -x {0.0 3.0 6 ------- null}
- -t 1.009 -s 0 -d 2 -p cbr -e 50 -c 1 -i 6 -a 1 -x {0.0 3.0 6 ------- null}
h -t 1.009 -s 0 -d 2 -p cbr -e 50 -c 1 -i 6 -a 1 -x {0.0 3.0 -1 ------- null}
r -t 1.00966 -s 0 -d 2 -p cbr -e 50 -c 1 -i 4 -a 1 -x {0.0 3.0 4 ------- null}
+ -t 1.00966 -s 2 -d 3 -p cbr -e 50 -c 1 -i 4 -a 1 -x {0.0 3.0 4 ------- null}
- -t 1.00966 -s 2 -d 3 -p cbr -e 50 -c 1 -i 4 -a 1 -x {0.0 3.0 4 ------- null}
h -t 1.00966 -s 2 -d 3 -p cbr -e 50 -c 1 -i 4 -a 1 -x {0.0 3.0 -1 ------- null}
r -t 1.01042666666667 -s 2 -d 3 -p cbr -e 50 -c 1 -i 1 -a 1 -x {0.0 3.0 1 ------- null}
+ -t 1.0105 -s 0 -d 2 -p cbr -e 50 -c 1 -i 7 -a 1 -x {0.0 3.0 7 ------- null}
- -t 1.0105 -s 0 -d 2 -p cbr -e 50 -c 1 -i 7 -a 1 -x {0.0 3.0 7 ------- null}
h -t 1.0105 -s 0 -d 2 -p cbr -e 50 -c 1 -i 7 -a 1 -x {0.0 3.0 -1 ------- null}
r -t 1.01116 -s 0 -d 2 -p cbr -e 50 -c 1 -i 5 -a 1 -x {0.0 3.0 5 ------- null}
+ -t 1.01116 -s 2 -d 3 -p cbr -e 50 -c 1 -i 5 -a 1 -x {0.0 3.0 5 ------- null}
- -t 1.01116 -s 2 -d 3 -p cbr -e 50 -c 1 -i 5 -a 1 -x {0.0 3.0 5 ------- null}
h -t 1.01116 -s 2 -d 3 -p cbr -e 50 -c 1 -i 5 -a 1 -x {0.0 3.0 -1 ------- null}
r -t 1.01192666666667 -s 2 -d 3 -p cbr -e 50 -c 1 -i 2 -a 1 -x {0.0 3.0 2 ------- null}
+ -t 1.012 -s 0 -d 2 -p cbr -e 50 -c 1 -i 8 -a 1 -x {0.0 3.0 8 ------- null}
- -t 1.012 -s 0 -d 2 -p cbr -e 50 -c 1 -i 8 -a 1 -x {0.0 3.0 8 ------- null}
h -t 1.012 -s 0 -d 2 -p cbr -e 50 -c 1 -i 8 -a 1 -x {0.0 3.0 -1 ------- null}
r -t 1.01266 -s 0 -d 2 -p cbr -e 50 -c 1 -i 6 -a 1 -x {0.0 3.0 6 ------- null}
+ -t 1.01266 -s 2 -d 3 -p cbr -e 50 -c 1 -i 6 -a 1 -x {0.0 3.0 6 ------- null}
- -t 1.01266 -s 2 -d 3 -p cbr -e 50 -c 1 -i 6 -a 1 -x {0.0 3.0 6 ------- null}
h -t 1.01266 -s 2 -d 3 -p cbr -e 50 -c 1 -i 6 -a 1 -x {0.0 3.0 -1 ------- null}
r -t 1.01342666666667 -s 2 -d 3 -p cbr -e 50 -c 1 -i 3 -a 1 -x {0.0 3.0 3 ------- null}
+ -t 1.0135 -s 0 -d 2 -p cbr -e 50 -c 1 -i 9 -a 1 -x {0.0 3.0 9 ------- null}
- -t 1.0135 -s 0 -d 2 -p cbr -e 50 -c 1 -i 9 -a 1 -x {0.0 3.0 9 ------- null}
h -t 1.0135 -s 0 -d 2 -p cbr -e 50 -c 1 -i 9 -a 1 -x {0.0 3.0 -1 ------- null}
r -t 1.01416 -s 0 -d 2 -p cbr -e 50 -c 1 -i 7 -a 1 -x {0.0 3.0 7 ------- null}
+ -t 1.01416 -s 2 -d 3 -p cbr -e 50 -c 1 -i 7 -a 1 -x {0.0 3.0 7 ------- null}
- -t 1.01416 -s 2 -d 3 -p cbr -e 50 -c 1 -i 7 -a 1 -x {0.0 3.0 7 ------- null}
h -t 1.01416 -s 2 -d 3 -p cbr -e 50 -c 1 -i 7 -a 1 -x {0.0 3.0 -1 ------- null}
r -t 1.01492666666667 -s 2 -d 3 -p cbr -e 50 -c 1 -i 4 -a 1 -x {0.0 3.0 4 ------- null}
+ -t 1.015 -s 0 -d 2 -p cbr -e 50 -c 1 -i 10 -a 1 -x {0.0 3.0 10 ------- null}
- -t 1.015 -s 0 -d 2 -p cbr -e 50 -c 1 -i 10 -a 1 -x {0.0 3.0 10 ------- null}
h -t 1.015 -s 0 -d 2 -p cbr -e 50 -c 1 -i 10 -a 1 -x {0.0 3.0 -1 ------- null}
r -t 1.01566 -s 0 -d 2 -p cbr -e 50 -c 1 -i 8 -a 1 -x {0.0 3.0 8 ------- null}
+ -t 1.01566 -s 2 -d 3 -p cbr -e 50 -c 1 -i 8 -a 1 -x {0.0 3.0 8 ------- null}
- -t 1.01566 -s 2 -d 3 -p cbr -e 50 -c 1 -i 8 -a 1 -x {0.0 3.0 8 ------- null}
h -t 1.01566 -s 2 -d 3 -p cbr -e 50 -c 1 -i 8 -a 1 -x {0.0 3.0 -1 ------- null}
r -t 1.01642666666667 -s 2 -d 3 -p cbr -e 50 -c 1 -i 5 -a 1 -x {0.0 3.0 5 ------- null}
+ -t 1.0165 -s 0 -d 2 -p cbr -e 50 -c 1 -i 11 -a 1 -x {0.0 3.0 11 ------- null}
- -t 1.0165 -s 0 -d 2 -p cbr -e 50 -c 1 -i 11 -a 1 -x {0.0 3.0 11 ------- null}
h -t 1.0165 -s 0 -d 2 -p cbr -e 50 -c 1 -i 11 -a 1 -x {0.0 3.0 -1 ------- null}
r -t 1.01716 -s 0 -d 2 -p cbr -e 50 -c 1 -i 9 -a 1 -x {0.0 3.0 9 ------- null}
+ -t 1.01716 -s 2 -d 3 -p cbr -e 50 -c 1 -i 9 -a 1 -x {0.0 3.0 9 ------- null}
- -t 1.01716 -s 2 -d 3 -p cbr -e 50 -c 1 -i 9 -a 1 -x {0.0 3.0 9 ------- null}
h -t 1.01716 -s 2 -d 3 -p cbr -e 50 -c 1 -i 9 -a 1 -x {0.0 3.0 -1 ------- null}
r -t 1.01792666666667 -s 2 -d 3 -p cbr -e 50 -c 1 -i 6 -a 1 -x {0.0 3.0 6 ------- null}
+ -t 1.018 -s 0 -d 2 -p cbr -e 50 -c 1 -i 12 -a 1 -x {0.0 3.0 12 ------- null}
- -t 1.018 -s 0 -d 2 -p cbr -e 50 -c 1 -i 12 -a 1 -x {0.0 3.0 12 ------- null}
h -t 1.018 -s 0 -d 2 -p cbr -e 50 -c 1 -i 12 -a 1 -x {0.0 3.0 -1 ------- null}
r -t 1.01866 -s 0 -d 2 -p cbr -e 50 -c 1 -i 10 -a 1 -x {0.0 3.0 10 ------- null}
+ -t 1.01866 -s 2 -d 3 -p cbr -e 50 -c 1 -i 10 -a 1 -x {0.0 3.0 10 ------- null}
- -t 1.01866 -s 2 -d 3 -p cbr -e 50 -c 1 -i 10 -a 1 -x {0.0 3.0 10 ------- null}
h -t 1.01866 -s 2 -d 3 -p cbr -e 50 -c 1 -i 10 -a 1 -x {0.0 3.0 -1 ------- null}
r -t 1.01942666666667 -s 2 -d 3 -p cbr -e 50 -c 1 -i 7 -a 1 -x {0.0 3.0 7 ------- null}
+ -t 1.0195 -s 0 -d 2 -p cbr -e 50 -c 1 -i 13 -a 1 -x {0.0 3.0 13 ------- null}
- -t 1.0195 -s 0 -d 2 -p cbr -e 50 -c 1 -i 13 -a 1 -x {0.0 3.0 13 ------- null}
h -t 1.0195 -s 0 -d 2 -p cbr -e 50 -c 1 -i 13 -a 1 -x {0.0 3.0 -1 ------- null}
r -t 1.02016 -s 0 -d 2 -p cbr -e 50 -c 1 -i 11 -a 1 -x {0.0 3.0 11 ------- null}
+ -t 1.02016 -s 2 -d 3 -p cbr -e 50 -c 1 -i 11 -a 1 -x {0.0 3.0 11 ------- null}
- -t 1.02016 -s 2 -d 3 -p cbr -e 50 -c 1 -i 11 -a 1 -x {0.0 3.0 11 ------- null}
h -t 1.02016 -s 2 -d 3 -p cbr -e 50 -c 1 -i 11 -a 1 -x {0.0 3.0 -1 ------- null}
r -t 1.02092666666667 -s 2 -d 3 -p cbr -e 50 -c 1 -i 8 -a 1 -x {0.0 3.0 8 ------- null}
+ -t 1.021 -s 0 -d 2 -p cbr -e 50 -c 1 -i 14 -a 1 -x {0.0 3.0 14 ------- null}
- -t 1.021 -s 0 -d 2 -p cbr -e 50 -c 1 -i 14 -a 1 -x {0.0 3.0 14 ------- null}
h -t 1.021 -s 0 -d 2 -p cbr -e 50 -c 1 -i 14 -a 1 -x {0.0 3.0 -1 ------- null}
r -t 1.02166 -s 0 -d 2 -p cbr -e 50 -c 1 -i 12 -a 1 -x {0.0 3.0 12 ------- null}
+ -t 1.02166 -s 2 -d 3 -p cbr -e 50 -c 1 -i 12 -a 1 -x {0.0 3.0 12 ------- null}
- -t 1.02166 -s 2 -d 3 -p cbr -e 50 -c 1 -i 12 -a 1 -x {0.0 3.0 12 ------- null}
h -t 1.02166 -s 2 -d 3 -p cbr -e 50 -c 1 -i 12 -a 1 -x {0.0 3.0 -1 ------- null}
r -t 1.02242666666667 -s 2 -d 3 -p cbr -e 50 -c 1 -i 9 -a 1 -x {0.0 3.0 9 ------- null}
+ -t 1.0225 -s 0 -d 2 -p cbr -e 50 -c 1 -i 15 -a 1 -x {0.0 3.0 15 ------- null}
- -t 1.0225 -s 0 -d 2 -p cbr -e 50 -c 1 -i 15 -a 1 -x {0.0 3.0 15 ------- null}
h -t 1.0225 -s 0 -d 2 -p cbr -e 50 -c 1 -i 15 -a 1 -x {0.0 3.0 -1 ------- null}
r -t 1.02316 -s 0 -d 2 -p cbr -e 50 -c 1 -i 13 -a 1 -x {0.0 3.0 13 ------- null}
+ -t 1.02316 -s 2 -d 3 -p cbr -e 50 -c 1 -i 13 -a 1 -x {0.0 3.0 13 ------- null}
- -t 1.02316 -s 2 -d 3 -p cbr -e 50 -c 1 -i 13 -a 1 -x {0.0 3.0 13 ------- null}
h -t 1.02316 -s 2 -d 3 -p cbr -e 50 -c 1 -i 13 -a 1 -x {0.0 3.0 -1 ------- null}
r -t 1.02392666666667 -s 2 -d 3 -p cbr -e 50 -c 1 -i 10 -a 1 -x {0.0 3.0 10 ------- null}
+ -t 1.024 -s 0 -d 2 -p cbr -e 50 -c 1 -i 16 -a 1 -x {0.0 3.0 16 ------- null}
- -t 1.024 -s 0 -d 2 -p cbr -e 50 -c 1 -i 16 -a 1 -x {0.0 3.0 16 ------- null}
h -t 1.024 -s 0 -d 2 -p cbr -e 50 -c 1 -i 16 -a 1 -x {0.0 3.0 -1 ------- null}
r -t 1.02466 -s 0 -d 2 -p cbr -e 50 -c 1 -i 14 -a 1 -x {0.0 3.0 14 ------- null}
+ -t 1.02466 -s 2 -d 3 -p cbr -e 50 -c 1 -i 14 -a 1 -x {0.0 3.0 14 ------- null}
- -t 1.02466 -s 2 -d 3 -p cbr -e 50 -c 1 -i 14 -a 1 -x {0.0 3.0 14 ------- null}
h -t 1.02466 -s 2 -d 3 -p cbr -e 50 -c 1 -i 14 -a 1 -x {0.0 3.0 -1 ------- null}
r -t 1.02542666666667 -s 2 -d 3 -p cbr -e 50 -c 1 -i 11 -a 1 -x {0.0 3.0 11 ------- null}
+ -t 1.0255 -s 0 -d 2 -p cbr -e 50 -c 1 -i 17 -a 1 -x {0.0 3.0 17 ------- null}
- -t 1.0255 -s 0 -d 2 -p cbr -e 50 -c 1 -i 17 -a 1 -x {0.0 3.0 17 ------- null}
h -t 1.0255 -s 0 -d 2 -p cbr -e 50 -c 1 -i 17 -a 1 -x {0.0 3.0 -1 ------- null}
r -t 1.02616 -s 0 -d 2 -p cbr -e 50 -c 1 -i 15 -a 1 -x {0.0 3.0 15 ------- null}
+ -t 1.02616 -s 2 -d 3 -p cbr -e 50 -c 1 -i 15 -a 1 -x {0.0 3.0 15 ------- null}
- -t 1.02616 -s 2 -d 3 -p cbr -e 50 -c 1 -i 15 -a 1 -x {0.0 3.0 15 ------- null}
h -t 1.02616 -s 2 -d 3 -p cbr -e 50 -c 1 -i 15 -a 1 -x {0.0 3.0 -1 ------- null}
r -t 1.02692666666667 -s 2 -d 3 -p cbr -e 50 -c 1 -i 12 -a 1 -x {0.0 3.0 12 ------- null}
+ -t 1.027 -s 0 -d 2 -p cbr -e 50 -c 1 -i 18 -a 1 -x {0.0 3.0 18 ------- null}
- -t 1.027 -s 0 -d 2 -p cbr -e 50 -c 1 -i 18 -a 1 -x {0.0 3.0 18 ------- null}
h -t 1.027 -s 0 -d 2 -p cbr -e 50 -c 1 -i 18 -a 1 -x {0.0 3.0 -1 ------- null}
r -t 1.02766 -s 0 -d 2 -p cbr -e 50 -c 1 -i 16 -a 1 -x {0.0 3.0 16 ------- null}
+ -t 1.02766 -s 2 -d 3 -p cbr -e 50 -c 1 -i 16 -a 1 -x {0.0 3.0 16 ------- null}
- -t 1.02766 -s 2 -d 3 -p cbr -e 50 -c 1 -i 16 -a 1 -x {0.0 3.0 16 ------- null}
h -t 1.02766 -s 2 -d 3 -p cbr -e 50 -c 1 -i 16 -a 1 -x {0.0 3.0 -1 ------- null}
r -t 1.02842666666667 -s 2 -d 3 -p cbr -e 50 -c 1 -i 13 -a 1 -x {0.0 3.0 13 ------- null}
+ -t 1.0285 -s 0 -d 2 -p cbr -e 50 -c 1 -i 19 -a 1 -x {0.0 3.0 19 ------- null}
- -t 1.0285 -s 0 -d 2 -p cbr -e 50 -c 1 -i 19 -a 1 -x {0.0 3.0 19 ------- null}
h -t 1.0285 -s 0 -d 2 -p cbr -e 50 -c 1 -i 19 -a 1 -x {0.0 3.0 -1 ------- null}
r -t 1.02916 -s 0 -d 2 -p cbr -e 50 -c 1 -i 17 -a 1 -x {0.0 3.0 17 ------- null}
+ -t 1.02916 -s 2 -d 3 -p cbr -e 50 -c 1 -i 17 -a 1 -x {0.0 3.0 17 ------- null}
- -t 1.02916 -s 2 -d 3 -p cbr -e 50 -c 1 -i 17 -a 1 -x {0.0 3.0 17 ------- null}
h -t 1.02916 -s 2 -d 3 -p cbr -e 50 -c 1 -i 17 -a 1 -x {0.0 3.0 -1 ------- null}
r -t 1.02992666666667 -s 2 -d 3 -p cbr -e 50 -c 1 -i 14 -a 1 -x {0.0 3.0 14 ------- null}
+ -t 1.03 -s 0 -d 2 -p cbr -e 50 -c 1 -i 20 -a 1 -x {0.0 3.0 20 ------- null}
- -t 1.03 -s 0 -d 2 -p cbr -e 50 -c 1 -i 20 -a 1 -x {0.0 3.0 20 ------- null}
h -t 1.03 -s 0 -d 2 -p cbr -e 50 -c 1 -i 20 -a 1 -x {0.0 3.0 -1 ------- null}
r -t 1.03066 -s 0 -d 2 -p cbr -e 50 -c 1 -i 18 -a 1 -x {0.0 3.0 18 ------- null}
+ -t 1.03066 -s 2 -d 3 -p cbr -e 50 -c 1 -i 18 -a 1 -x {0.0 3.0 18 ------- null}
- -t 1.03066 -s 2 -d 3 -p cbr -e 50 -c 1 -i 18 -a 1 -x {0.0 3.0 18 ------- null}
h -t 1.03066 -s 2 -d 3 -p cbr -e 50 -c 1 -i 18 -a 1 -x {0.0 3.0 -1 ------- null}
r -t 1.03142666666667 -s 2 -d 3 -p cbr -e 50 -c 1 -i 15 -a 1 -x {0.0 3.0 15 ------- null}
+ -t 1.0315 -s 0 -d 2 -p cbr -e 50 -c 1 -i 21 -a 1 -x {0.0 3.0 21 ------- null}
- -t 1.0315 -s 0 -d 2 -p cbr -e 50 -c 1 -i 21 -a 1 -x {0.0 3.0 21 ------- null}
h -t 1.0315 -s 0 -d 2 -p cbr -e 50 -c 1 -i 21 -a 1 -x {0.0 3.0 -1 ------- null}
r -t 1.03216 -s 0 -d 2 -p cbr -e 50 -c 1 -i 19 -a 1 -x {0.0 3.0 19 ------- null}
+ -t 1.03216 -s 2 -d 3 -p cbr -e 50 -c 1 -i 19 -a 1 -x {0.0 3.0 19 ------- null}
- -t 1.03216 -s 2 -d 3 -p cbr -e 50 -c 1 -i 19 -a 1 -x {0.0 3.0 19 ------- null}
h -t 1.03216 -s 2 -d 3 -p cbr -e 50 -c 1 -i 19 -a 1 -x {0.0 3.0 -1 ------- null}
r -t 1.03292666666667 -s 2 -d 3 -p cbr -e 50 -c 1 -i 16 -a 1 -x {0.0 3.0 16 ------- null}
+ -t 1.033 -s 0 -d 2 -p cbr -e 50 -c 1 -i 22 -a 1 -x {0.0 3.0 22 ------- null}
- -t 1.033 -s 0 -d 2 -p cbr -e 50 -c 1 -i 22 -a 1 -x {0.0 3.0 22 ------- null}
h -t 1.033 -s 0 -d 2 -p cbr -e 50 -c 1 -i 22 -a 1 -x {0.0 3.0 -1 ------- null}
r -t 1.03366 -s 0 -d 2 -p cbr -e 50 -c 1 -i 20 -a 1 -x {0.0 3.0 20 ------- null}
+ -t 1.03366 -s 2 -d 3 -p cbr -e 50 -c 1 -i 20 -a 1 -x {0.0 3.0 20 ------- null}
- -t 1.03366 -s 2 -d 3 -p cbr -e 50 -c 1 -i 20 -a 1 -x {0.0 3.0 20 ------- null}
h -t 1.03366 -s 2 -d 3 -p cbr -e 50 -c 1 -i 20 -a 1 -x {0.0 3.0 -1 ------- null}
r -t 1.03442666666667 -s 2 -d 3 -p cbr -e 50 -c 1 -i 17 -a 1 -x {0.0 3.0 17 ------- null}
+ -t 1.0345 -s 0 -d 2 -p cbr -e 50 -c 1 -i 23 -a 1 -x {0.0 3.0 23 ------- null}
- -t 1.0345 -s 0 -d 2 -p cbr -e 50 -c 1 -i 23 -a 1 -x {0.0 3.0 23 ------- null}
h -t 1.0345 -s 0 -d 2 -p cbr -e 50 -c 1 -i 23 -a 1 -x {0.0 3.0 -1 ------- null}
r -t 1.03516 -s 0 -d 2 -p cbr -e 50 -c 1 -i 21 -a 1 -x {0.0 3.0 21 ------- null}
+ -t 1.03516 -s 2 -d 3 -p cbr -e 50 -c 1 -i 21 -a 1 -x {0.0 3.0 21 ------- null}
- -t 1.03516 -s 2 -d 3 -p cbr -e 50 -c 1 -i 21 -a 1 -x {0.0 3.0 21 ------- null}
h -t 1.03516 -s 2 -d 3 -p cbr -e 50 -c 1 -i 21 -a 1 -x {0.0 3.0 -1 ------- null}
r -t 1.03592666666667 -s 2 -d 3 -p cbr -e 50 -c 1 -i 18 -a 1 -x {0.0 3.0 18 ------- null}
+ -t 1.036 -s 0 -d 2 -p cbr -e 50 -c 1 -i 24 -a 1 -x {0.0 3.0 24 ------- null}
- -t 1.036 -s 0 -d 2 -p cbr -e 50 -c 1 -i 24 -a 1 -x {0.0 3.0 24 ------- null}
h -t 1.036 -s 0 -d 2 -p cbr -e 50 -c 1 -i 24 -a 1 -x {0.0 3.0 -1 ------- null}
r -t 1.03666 -s 0 -d 2 -p cbr -e 50 -c 1 -i 22 -a 1 -x {0.0 3.0 22 ------- null}
+ -t 1.03666 -s 2 -d 3 -p cbr -e 50 -c 1 -i 22 -a 1 -x {0.0 3.0 22 ------- null}
- -t 1.03666 -s 2 -d 3 -p cbr -e 50 -c 1 -i 22 -a 1 -x {0.0 3.0 22 ------- null}
h -t 1.03666 -s 2 -d 3 -p cbr -e 50 -c 1 -i 22 -a 1 -x {0.0 3.0 -1 ------- null}
r -t 1.03742666666667 -s 2 -d 3 -p cbr -e 50 -c 1 -i 19 -a 1 -x {0.0 3.0 19 ------- null}
+ -t 1.0375 -s 0 -d 2 -p cbr -e 50 -c 1 -i 25 -a 1 -x {0.0 3.0 25 ------- null}
- -t 1.0375 -s 0 -d 2 -p cbr -e 50 -c 1 -i 25 -a 1 -x {0.0 3.0 25 ------- null}
h -t 1.0375 -s 0 -d 2 -p cbr -e 50 -c 1 -i 25 -a 1 -x {0.0 3.0 -1 ------- null}
r -t 1.03816 -s 0 -d 2 -p cbr -e 50 -c 1 -i 23 -a 1 -x {0.0 3.0 23 ------- null}
+ -t 1.03816 -s 2 -d 3 -p cbr -e 50 -c 1 -i 23 -a 1 -x {0.0 3.0 23 ------- null}
- -t 1.03816 -s 2 -d 3 -p cbr -e 50 -c 1 -i 23 -a 1 -x {0.0 3.0 23 ------- null}
h -t 1.03816 -s 2 -d 3 -p cbr -e 50 -c 1 -i 23 -a 1 -x {0.0 3.0 -1 ------- null}
r -t 1.03892666666667 -s 2 -d 3 -p cbr -e 50 -c 1 -i 20 -a 1 -x {0.0 3.0 20 ------- null}
+ -t 1.039 -s 0 -d 2 -p cbr -e 50 -c 1 -i 26 -a 1 -x {0.0 3.0 26 ------- null}
- -t 1.039 -s 0 -d 2 -p cbr -e 50 -c 1 -i 26 -a 1 -x {0.0 3.0 26 ------- null}
h -t 1.039 -s 0 -d 2 -p cbr -e 50 -c 1 -i 26 -a 1 -x {0.0 3.0 -1 ------- null}
r -t 1.03966 -s 0 -d 2 -p cbr -e 50 -c 1 -i 24 -a 1 -x {0.0 3.0 24 ------- null}
+ -t 1.03966 -s 2 -d 3 -p cbr -e 50 -c 1 -i 24 -a 1 -x {0.0 3.0 24 ------- null}
- -t 1.03966 -s 2 -d 3 -p cbr -e 50 -c 1 -i 24 -a 1 -x {0.0 3.0 24 ------- null}
h -t 1.03966 -s 2 -d 3 -p cbr -e 50 -c 1 -i 24 -a 1 -x {0.0 3.0 -1 ------- null}
r -t 1.04042666666667 -s 2 -d 3 -p cbr -e 50 -c 1 -i 21 -a 1 -x {0.0 3.0 21 ------- null}
+ -t 1.0405 -s 0 -d 2 -p cbr -e 50 -c 1 -i 27 -a 1 -x {0.0 3.0 27 ------- null}
- -t 1.0405 -s 0 -d 2 -p cbr -e 50 -c 1 -i 27 -a 1 -x {0.0 3.0 27 ------- null}
h -t 1.0405 -s 0 -d 2 -p cbr -e 50 -c 1 -i 27 -a 1 -x {0.0 3.0 -1 ------- null}
r -t 1.04116 -s 0 -d 2 -p cbr -e 50 -c 1 -i 25 -a 1 -x {0.0 3.0 25 ------- null}
+ -t 1.04116 -s 2 -d 3 -p cbr -e 50 -c 1 -i 25 -a 1 -x {0.0 3.0 25 ------- null}
- -t 1.04116 -s 2 -d 3 -p cbr -e 50 -c 1 -i 25 -a 1 -x {0.0 3.0 25 ------- null}
h -t 1.04116 -s 2 -d 3 -p cbr -e 50 -c 1 -i 25 -a 1 -x {0.0 3.0 -1 ------- null}
r -t 1.04192666666667 -s 2 -d 3 -p cbr -e 50 -c 1 -i 22 -a 1 -x {0.0 3.0 22 ------- null}
+ -t 1.042 -s 0 -d 2 -p cbr -e 50 -c 1 -i 28 -a 1 -x {0.0 3.0 28 ------- null}
- -t 1.042 -s 0 -d 2 -p cbr -e 50 -c 1 -i 28 -a 1 -x {0.0 3.0 28 ------- null}
h -t 1.042 -s 0 -d 2 -p cbr -e 50 -c 1 -i 28 -a 1 -x {0.0 3.0 -1 ------- null}
r -t 1.04266 -s 0 -d 2 -p cbr -e 50 -c 1 -i 26 -a 1 -x {0.0 3.0 26 ------- null}
+ -t 1.04266 -s 2 -d 3 -p cbr -e 50 -c 1 -i 26 -a 1 -x {0.0 3.0 26 ------- null}
- -t 1.04266 -s 2 -d 3 -p cbr -e 50 -c 1 -i 26 -a 1 -x {0.0 3.0 26 ------- null}
h -t 1.04266 -s 2 -d 3 -p cbr -e 50 -c 1 -i 26 -a 1 -x {0.0 3.0 -1 ------- null}
r -t 1.04342666666667 -s 2 -d 3 -p cbr -e 50 -c 1 -i 23 -a 1 -x {0.0 3.0 23 ------- null}
+ -t 1.0435 -s 0 -d 2 -p cbr -e 50 -c 1 -i 29 -a 1 -x {0.0 3.0 29 ------- null}
- -t 1.0435 -s 0 -d 2 -p cbr -e 50 -c 1 -i 29 -a 1 -x {0.0 3.0 29 ------- null}
h -t 1.0435 -s 0 -d 2 -p cbr -e 50 -c 1 -i 29 -a 1 -x {0.0 3.0 -1 ------- null}
r -t 1.04416 -s 0 -d 2 -p cbr -e 50 -c 1 -i 27 -a 1 -x {0.0 3.0 27 ------- null}
+ -t 1.04416 -s 2 -d 3 -p cbr -e 50 -c 1 -i 27 -a 1 -x {0.0 3.0 27 ------- null}
- -t 1.04416 -s 2 -d 3 -p cbr -e 50 -c 1 -i 27 -a 1 -x {0.0 3.0 27 ------- null}
h -t 1.04416 -s 2 -d 3 -p cbr -e 50 -c 1 -i 27 -a 1 -x {0.0 3.0 -1 ------- null}
r -t 1.04492666666667 -s 2 -d 3 -p cbr -e 50 -c 1 -i 24 -a 1 -x {0.0 3.0 24 ------- null}
+ -t 1.045 -s 0 -d 2 -p cbr -e 50 -c 1 -i 30 -a 1 -x {0.0 3.0 30 ------- null}
- -t 1.045 -s 0 -d 2 -p cbr -e 50 -c 1 -i 30 -a 1 -x {0.0 3.0 30 ------- null}
h -t 1.045 -s 0 -d 2 -p cbr -e 50 -c 1 -i 30 -a 1 -x {0.0 3.0 -1 ------- null}
r -t 1.04566 -s 0 -d 2 -p cbr -e 50 -c 1 -i 28 -a 1 -x {0.0 3.0 28 ------- null}
+ -t 1.04566 -s 2 -d 3 -p cbr -e 50 -c 1 -i 28 -a 1 -x {0.0 3.0 28 ------- null}
- -t 1.04566 -s 2 -d 3 -p cbr -e 50 -c 1 -i 28 -a 1 -x {0.0 3.0 28 ------- null}
h -t 1.04566 -s 2 -d 3 -p cbr -e 50 -c 1 -i 28 -a 1 -x {0.0 3.0 -1 ------- null}
r -t 1.04642666666667 -s 2 -d 3 -p cbr -e 50 -c 1 -i 25 -a 1 -x {0.0 3.0 25 ------- null}
+ -t 1.0465 -s 0 -d 2 -p cbr -e 50 -c 1 -i 31 -a 1 -x {0.0 3.0 31 ------- null}
- -t 1.0465 -s 0 -d 2 -p cbr -e 50 -c 1 -i 31 -a 1 -x {0.0 3.0 31 ------- null}
h -t 1.0465 -s 0 -d 2 -p cbr -e 50 -c 1 -i 31 -a 1 -x {0.0 3.0 -1 ------- null}
r -t 1.04716 -s 0 -d 2 -p cbr -e 50 -c 1 -i 29 -a 1 -x {0.0 3.0 29 ------- null}
+ -t 1.04716 -s 2 -d 3 -p cbr -e 50 -c 1 -i 29 -a 1 -x {0.0 3.0 29 ------- null}
- -t 1.04716 -s 2 -d 3 -p cbr -e 50 -c 1 -i 29 -a 1 -x {0.0 3.0 29 ------- null}
h -t 1.04716 -s 2 -d 3 -p cbr -e 50 -c 1 -i 29 -a 1 -x {0.0 3.0 -1 ------- null}
r -t 1.04792666666667 -s 2 -d 3 -p cbr -e 50 -c 1 -i 26 -a 1 -x {0.0 3.0 26 ------- null}
+ -t 1.048 -s 0 -d 2 -p cbr -e 50 -c 1 -i 32 -a 1 -x {0.0 3.0 32 ------- null}
- -t 1.048 -s 0 -d 2 -p cbr -e 50 -c 1 -i 32 -a 1 -x {0.0 3.0 32 ------- null}
h -t 1.048 -s 0 -d 2 -p cbr -e 50 -c 1 -i 32 -a 1 -x {0.0 3.0 -1 ------- null}
r -t 1.04866 -s 0 -d 2 -p cbr -e 50 -c 1 -i 30 -a 1 -x {0.0 3.0 30 ------- null}
+ -t 1.04866 -s 2 -d 3 -p cbr -e 50 -c 1 -i 30 -a 1 -x {0.0 3.0 30 ------- null}
- -t 1.04866 -s 2 -d 3 -p cbr -e 50 -c 1 -i 30 -a 1 -x {0.0 3.0 30 ------- null}
h -t 1.04866 -s 2 -d 3 -p cbr -e 50 -c 1 -i 30 -a 1 -x {0.0 3.0 -1 ------- null}
r -t 1.04942666666667 -s 2 -d 3 -p cbr -e 50 -c 1 -i 27 -a 1 -x {0.0 3.0 27 ------- null}
+ -t 1.0495 -s 0 -d 2 -p cbr -e 50 -c 1 -i 33 -a 1 -x {0.0 3.0 33 ------- null}
- -t 1.0495 -s 0 -d 2 -p cbr -e 50 -c 1 -i 33 -a 1 -x {0.0 3.0 33 ------- null}
h -t 1.0495 -s 0 -d 2 -p cbr -e 50 -c 1 -i 33 -a 1 -x {0.0 3.0 -1 ------- null}
r -t 1.05016 -s 0 -d 2 -p cbr -e 50 -c 1 -i 31 -a 1 -x {0.0 3.0 31 ------- null}
+ -t 1.05016 -s 2 -d 3 -p cbr -e 50 -c 1 -i 31 -a 1 -x {0.0 3.0 31 ------- null}
- -t 1.05016 -s 2 -d 3 -p cbr -e 50 -c 1 -i 31 -a 1 -x {0.0 3.0 31 ------- null}
h -t 1.05016 -s 2 -d 3 -p cbr -e 50 -c 1 -i 31 -a 1 -x {0.0 3.0 -1 ------- null}
r -t 1.05092666666667 -s 2 -d 3 -p cbr -e 50 -c 1 -i 28 -a 1 -x {0.0 3.0 28 ------- null}
+ -t 1.051 -s 0 -d 2 -p cbr -e 50 -c 1 -i 34 -a 1 -x {0.0 3.0 34 ------- null}
- -t 1.051 -s 0 -d 2 -p cbr -e 50 -c 1 -i 34 -a 1 -x {0.0 3.0 34 ------- null}
h -t 1.051 -s 0 -d 2 -p cbr -e 50 -c 1 -i 34 -a 1 -x {0.0 3.0 -1 ------- null}
r -t 1.05166 -s 0 -d 2 -p cbr -e 50 -c 1 -i 32 -a 1 -x {0.0 3.0 32 ------- null}
+ -t 1.05166 -s 2 -d 3 -p cbr -e 50 -c 1 -i 32 -a 1 -x {0.0 3.0 32 ------- null}
- -t 1.05166 -s 2 -d 3 -p cbr -e 50 -c 1 -i 32 -a 1 -x {0.0 3.0 32 ------- null}
h -t 1.05166 -s 2 -d 3 -p cbr -e 50 -c 1 -i 32 -a 1 -x {0.0 3.0 -1 ------- null}
r -t 1.05242666666667 -s 2 -d 3 -p cbr -e 50 -c 1 -i 29 -a 1 -x {0.0 3.0 29 ------- null}
+ -t 1.0525 -s 0 -d 2 -p cbr -e 50 -c 1 -i 35 -a 1 -x {0.0 3.0 35 ------- null}
- -t 1.0525 -s 0 -d 2 -p cbr -e 50 -c 1 -i 35 -a 1 -x {0.0 3.0 35 ------- null}
h -t 1.0525 -s 0 -d 2 -p cbr -e 50 -c 1 -i 35 -a 1 -x {0.0 3.0 -1 ------- null}
r -t 1.05316 -s 0 -d 2 -p cbr -e 50 -c 1 -i 33 -a 1 -x {0.0 3.0 33 ------- null}
+ -t 1.05316 -s 2 -d 3 -p cbr -e 50 -c 1 -i 33 -a 1 -x {0.0 3.0 33 ------- null}
- -t 1.05316 -s 2 -d 3 -p cbr -e 50 -c 1 -i 33 -a 1 -x {0.0 3.0 33 ------- null}
h -t 1.05316 -s 2 -d 3 -p cbr -e 50 -c 1 -i 33 -a 1 -x {0.0 3.0 -1 ------- null}
r -t 1.05392666666667 -s 2 -d 3 -p cbr -e 50 -c 1 -i 30 -a 1 -x {0.0 3.0 30 ------- null}
+ -t 1.054 -s 0 -d 2 -p cbr -e 50 -c 1 -i 36 -a 1 -x {0.0 3.0 36 ------- null}
- -t 1.054 -s 0 -d 2 -p cbr -e 50 -c 1 -i 36 -a 1 -x {0.0 3.0 36 ------- null}
h -t 1.054 -s 0 -d 2 -p cbr -e 50 -c 1 -i 36 -a 1 -x {0.0 3.0 -1 ------- null}
r -t 1.05466 -s 0 -d 2 -p cbr -e 50 -c 1 -i 34 -a 1 -x {0.0 3.0 34 ------- null}
+ -t 1.05466 -s 2 -d 3 -p cbr -e 50 -c 1 -i 34 -a 1 -x {0.0 3.0 34 ------- null}
- -t 1.05466 -s 2 -d 3 -p cbr -e 50 -c 1 -i 34 -a 1 -x {0.0 3.0 34 ------- null}
h -t 1.05466 -s 2 -d 3 -p cbr -e 50 -c 1 -i 34 -a 1 -x {0.0 3.0 -1 ------- null}
r -t 1.05542666666667 -s 2 -d 3 -p cbr -e 50 -c 1 -i 31 -a 1 -x {0.0 3.0 31 ------- null}
+ -t 1.0555 -s 0 -d 2 -p cbr -e 50 -c 1 -i 37 -a 1 -x {0.0 3.0 37 ------- null}
- -t 1.0555 -s 0 -d 2 -p cbr -e 50 -c 1 -i 37 -a 1 -x {0.0 3.0 37 ------- null}
h -t 1.0555 -s 0 -d 2 -p cbr -e 50 -c 1 -i 37 -a 1 -x {0.0 3.0 -1 ------- null}
r -t 1.05616 -s 0 -d 2 -p cbr -e 50 -c 1 -i 35 -a 1 -x {0.0 3.0 35 ------- null}
+ -t 1.05616 -s 2 -d 3 -p cbr -e 50 -c 1 -i 35 -a 1 -x {0.0 3.0 35 ------- null}
- -t 1.05616 -s 2 -d 3 -p cbr -e 50 -c 1 -i 35 -a 1 -x {0.0 3.0 35 ------- null}
h -t 1.05616 -s 2 -d 3 -p cbr -e 50 -c 1 -i 35 -a 1 -x {0.0 3.0 -1 ------- null}
r -t 1.05692666666667 -s 2 -d 3 -p cbr -e 50 -c 1 -i 32 -a 1 -x {0.0 3.0 32 ------- null}
+ -t 1.057 -s 0 -d 2 -p cbr -e 50 -c 1 -i 38 -a 1 -x {0.0 3.0 38 ------- null}
- -t 1.057 -s 0 -d 2 -p cbr -e 50 -c 1 -i 38 -a 1 -x {0.0 3.0 38 ------- null}
h -t 1.057 -s 0 -d 2 -p cbr -e 50 -c 1 -i 38 -a 1 -x {0.0 3.0 -1 ------- null}
r -t 1.05766 -s 0 -d 2 -p cbr -e 50 -c 1 -i 36 -a 1 -x {0.0 3.0 36 ------- null}
+ -t 1.05766 -s 2 -d 3 -p cbr -e 50 -c 1 -i 36 -a 1 -x {0.0 3.0 36 ------- null}
- -t 1.05766 -s 2 -d 3 -p cbr -e 50 -c 1 -i 36 -a 1 -x {0.0 3.0 36 ------- null}
h -t 1.05766 -s 2 -d 3 -p cbr -e 50 -c 1 -i 36 -a 1 -x {0.0 3.0 -1 ------- null}
r -t 1.05842666666667 -s 2 -d 3 -p cbr -e 50 -c 1 -i 33 -a 1 -x {0.0 3.0 33 ------- null}
+ -t 1.0585 -s 0 -d 2 -p cbr -e 50 -c 1 -i 39 -a 1 -x {0.0 3.0 39 ------- null}
- -t 1.0585 -s 0 -d 2 -p cbr -e 50 -c 1 -i 39 -a 1 -x {0.0 3.0 39 ------- null}
h -t 1.0585 -s 0 -d 2 -p cbr -e 50 -c 1 -i 39 -a 1 -x {0.0 3.0 -1 ------- null}
r -t 1.05916 -s 0 -d 2 -p cbr -e 50 -c 1 -i 37 -a 1 -x {0.0 3.0 37 ------- null}
+ -t 1.05916 -s 2 -d 3 -p cbr -e 50 -c 1 -i 37 -a 1 -x {0.0 3.0 37 ------- null}
- -t 1.05916 -s 2 -d 3 -p cbr -e 50 -c 1 -i 37 -a 1 -x {0.0 3.0 37 ------- null}
h -t 1.05916 -s 2 -d 3 -p cbr -e 50 -c 1 -i 37 -a 1 -x {0.0 3.0 -1 ------- null}
r -t 1.05992666666667 -s 2 -d 3 -p cbr -e 50 -c 1 -i 34 -a 1 -x {0.0 3.0 34 ------- null}
+ -t 1.06 -s 0 -d 2 -p cbr -e 50 -c 1 -i 40 -a 1 -x {0.0 3.0 40 ------- null}
- -t 1.06 -s 0 -d 2 -p cbr -e 50 -c 1 -i 40 -a 1 -x {0.0 3.0 40 ------- null}
h -t 1.06 -s 0 -d 2 -p cbr -e 50 -c 1 -i 40 -a 1 -x {0.0 3.0 -1 ------- null}
r -t 1.06066 -s 0 -d 2 -p cbr -e 50 -c 1 -i 38 -a 1 -x {0.0 3.0 38 ------- null}
+ -t 1.06066 -s 2 -d 3 -p cbr -e 50 -c 1 -i 38 -a 1 -x {0.0 3.0 38 ------- null}
- -t 1.06066 -s 2 -d 3 -p cbr -e 50 -c 1 -i 38 -a 1 -x {0.0 3.0 38 ------- null}
h -t 1.06066 -s 2 -d 3 -p cbr -e 50 -c 1 -i 38 -a 1 -x {0.0 3.0 -1 ------- null}
r -t 1.06142666666667 -s 2 -d 3 -p cbr -e 50 -c 1 -i 35 -a 1 -x {0.0 3.0 35 ------- null}
+ -t 1.0615 -s 0 -d 2 -p cbr -e 50 -c 1 -i 41 -a 1 -x {0.0 3.0 41 ------- null}
- -t 1.0615 -s 0 -d 2 -p cbr -e 50 -c 1 -i 41 -a 1 -x {0.0 3.0 41 ------- null}
h -t 1.0615 -s 0 -d 2 -p cbr -e 50 -c 1 -i 41 -a 1 -x {0.0 3.0 -1 ------- null}
r -t 1.06216 -s 0 -d 2 -p cbr -e 50 -c 1 -i 39 -a 1 -x {0.0 3.0 39 ------- null}
+ -t 1.06216 -s 2 -d 3 -p cbr -e 50 -c 1 -i 39 -a 1 -x {0.0 3.0 39 ------- null}
- -t 1.06216 -s 2 -d 3 -p cbr -e 50 -c 1 -i 39 -a 1 -x {0.0 3.0 39 ------- null}
h -t 1.06216 -s 2 -d 3 -p cbr -e 50 -c 1 -i 39 -a 1 -x {0.0 3.0 -1 ------- null}
r -t 1.06292666666667 -s 2 -d 3 -p cbr -e 50 -c 1 -i 36 -a 1 -x {0.0 3.0 36 ------- null}
+ -t 1.063 -s 0 -d 2 -p cbr -e 50 -c 1 -i 42 -a 1 -x {0.0 3.0 42 ------- null}
- -t 1.063 -s 0 -d 2 -p cbr -e 50 -c 1 -i 42 -a 1 -x {0.0 3.0 42 ------- null}
h -t 1.063 -s 0 -d 2 -p cbr -e 50 -c 1 -i 42 -a 1 -x {0.0 3.0 -1 ------- null}
r -t 1.06366 -s 0 -d 2 -p cbr -e 50 -c 1 -i 40 -a 1 -x {0.0 3.0 40 ------- null}
+ -t 1.06366 -s 2 -d 3 -p cbr -e 50 -c 1 -i 40 -a 1 -x {0.0 3.0 40 ------- null}
- -t 1.06366 -s 2 -d 3 -p cbr -e 50 -c 1 -i 40 -a 1 -x {0.0 3.0 40 ------- null}
h -t 1.06366 -s 2 -d 3 -p cbr -e 50 -c 1 -i 40 -a 1 -x {0.0 3.0 -1 ------- null}
r -t 1.06442666666667 -s 2 -d 3 -p cbr -e 50 -c 1 -i 37 -a 1 -x {0.0 3.0 37 ------- null}
+ -t 1.0645 -s 0 -d 2 -p cbr -e 50 -c 1 -i 43 -a 1 -x {0.0 3.0 43 ------- null}
- -t 1.0645 -s 0 -d 2 -p cbr -e 50 -c 1 -i 43 -a 1 -x {0.0 3.0 43 ------- null}
h -t 1.0645 -s 0 -d 2 -p cbr -e 50 -c 1 -i 43 -a 1 -x {0.0 3.0 -1 ------- null}
r -t 1.06516 -s 0 -d 2 -p cbr -e 50 -c 1 -i 41 -a 1 -x {0.0 3.0 41 ------- null}
+ -t 1.06516 -s 2 -d 3 -p cbr -e 50 -c 1 -i 41 -a 1 -x {0.0 3.0 41 ------- null}
- -t 1.06516 -s 2 -d 3 -p cbr -e 50 -c 1 -i 41 -a 1 -x {0.0 3.0 41 ------- null}
h -t 1.06516 -s 2 -d 3 -p cbr -e 50 -c 1 -i 41 -a 1 -x {0.0 3.0 -1 ------- null}
r -t 1.06592666666667 -s 2 -d 3 -p cbr -e 50 -c 1 -i 38 -a 1 -x {0.0 3.0 38 ------- null}
+ -t 1.066 -s 0 -d 2 -p cbr -e 50 -c 1 -i 44 -a 1 -x {0.0 3.0 44 ------- null}
- -t 1.066 -s 0 -d 2 -p cbr -e 50 -c 1 -i 44 -a 1 -x {0.0 3.0 44 ------- null}
h -t 1.066 -s 0 -d 2 -p cbr -e 50 -c 1 -i 44 -a 1 -x {0.0 3.0 -1 ------- null}
r -t 1.06666 -s 0 -d 2 -p cbr -e 50 -c 1 -i 42 -a 1 -x {0.0 3.0 42 ------- null}
+ -t 1.06666 -s 2 -d 3 -p cbr -e 50 -c 1 -i 42 -a 1 -x {0.0 3.0 42 ------- null}
- -t 1.06666 -s 2 -d 3 -p cbr -e 50 -c 1 -i 42 -a 1 -x {0.0 3.0 42 ------- null}
h -t 1.06666 -s 2 -d 3 -p cbr -e 50 -c 1 -i 42 -a 1 -x {0.0 3.0 -1 ------- null}
r -t 1.06742666666667 -s 2 -d 3 -p cbr -e 50 -c 1 -i 39 -a 1 -x {0.0 3.0 39 ------- null}
+ -t 1.0675 -s 0 -d 2 -p cbr -e 50 -c 1 -i 45 -a 1 -x {0.0 3.0 45 ------- null}
- -t 1.0675 -s 0 -d 2 -p cbr -e 50 -c 1 -i 45 -a 1 -x {0.0 3.0 45 ------- null}
h -t 1.0675 -s 0 -d 2 -p cbr -e 50 -c 1 -i 45 -a 1 -x {0.0 3.0 -1 ------- null}
r -t 1.06816 -s 0 -d 2 -p cbr -e 50 -c 1 -i 43 -a 1 -x {0.0 3.0 43 ------- null}
+ -t 1.06816 -s 2 -d 3 -p cbr -e 50 -c 1 -i 43 -a 1 -x {0.0 3.0 43 ------- null}
- -t 1.06816 -s 2 -d 3 -p cbr -e 50 -c 1 -i 43 -a 1 -x {0.0 3.0 43 ------- null}
h -t 1.06816 -s 2 -d 3 -p cbr -e 50 -c 1 -i 43 -a 1 -x {0.0 3.0 -1 ------- null}
r -t 1.06892666666667 -s 2 -d 3 -p cbr -e 50 -c 1 -i 40 -a 1 -x {0.0 3.0 40 ------- null}
+ -t 1.069 -s 0 -d 2 -p cbr -e 50 -c 1 -i 46 -a 1 -x {0.0 3.0 46 ------- null}
- -t 1.069 -s 0 -d 2 -p cbr -e 50 -c 1 -i 46 -a 1 -x {0.0 3.0 46 ------- null}
h -t 1.069 -s 0 -d 2 -p cbr -e 50 -c 1 -i 46 -a 1 -x {0.0 3.0 -1 ------- null}
r -t 1.06966 -s 0 -d 2 -p cbr -e 50 -c 1 -i 44 -a 1 -x {0.0 3.0 44 ------- null}
+ -t 1.06966 -s 2 -d 3 -p cbr -e 50 -c 1 -i 44 -a 1 -x {0.0 3.0 44 ------- null}
- -t 1.06966 -s 2 -d 3 -p cbr -e 50 -c 1 -i 44 -a 1 -x {0.0 3.0 44 ------- null}
h -t 1.06966 -s 2 -d 3 -p cbr -e 50 -c 1 -i 44 -a 1 -x {0.0 3.0 -1 ------- null}