+ 1 0 2 cbr 50 ------- 1 0.0 3.0 0 0
- 1 0 2 cbr 50 ------- 1 0.0 3.0 0 0
+ 1.0015 0 2 cbr 50 ------- 1 0.0 3.0 1 1
- 1.0015 0 2 cbr 50 ------- 1 0.0 3.0 1 1
+ 1.003 0 2 cbr 50 ------- 1 0.0 3.0 2 2
- 1.003 0 2 cbr 50 ------- 1 0.0 3.0 2 2
r 1.00416 0 2 cbr 50 ------- 1 0.0 3.0 0 0
+ 1.00416 2 3 cbr 50 ------- 1 0.0 3.0 0 0
- 1.00416 2 3 cbr 50 ------- 1 0.0 3.0 0 0
+ 1.0045 0 2 cbr 50 ------- 1 0.0 3.0 3 3
- 1.0045 0 2 cbr 50 ------- 1 0.0 3.0 3 3
r 1.00566 0 2 cbr 50 ------- 1 0.0 3.0 1 1
+ 1.00566 2 3 cbr 50 ------- 1 0.0 3.0 1 1
- 1.00566 2 3 cbr 50 ------- 1 0.0 3.0 1 1
+ 1.006 0 2 cbr 50 ------- 1 0.0 3.0 4 4
- 1.006 0 2 cbr 50 ------- 1 0.0 3.0 4 4
r 1.00716 0 2 cbr 50 ------- 1 0.0 3.0 2 2
+ 1.00716 2 3 cbr 50 ------- 1 0.0 3.0 2 2
- 1.00716 2 3 cbr 50 ------- 1 0.0 3.0 2 2
+ 1.0075 0 2 cbr 50 ------- 1 0.0 3.0 5 5
- 1.0075 0 2 cbr 50 ------- 1 0.0 3.0 5 5
r 1.00846 2 3 cbr 50 ------- 1 0.0 3.0 0 0
r 1.00866 0 2 cbr 50 ------- 1 0.0 3.0 3 3
+ 1.00866 2 3 cbr 50 ------- 1 0.0 3.0 3 3
- 1.00866 2 3 cbr 50 ------- 1 0.0 3.0 3 3
+ 1.009 0 2 cbr 50 ------- 1 0.0 3.0 6 6
- 1.009 0 2 cbr 50 ------- 1 0.0 3.0 6 6
r 1.00996 2 3 cbr 50 ------- 1 0.0 3.0 1 1
r 1.01016 0 2 cbr 50 ------- 1 0.0 3.0 4 4
+ 1.01016 2 3 cbr 50 ------- 1 0.0 3.0 4 4
- 1.01016 2 3 cbr 50 ------- 1 0.0 3.0 4 4
+ 1.0105 0 2 cbr 50 ------- 1 0.0 3.0 7 7
- 1.0105 0 2 cbr 50 ------- 1 0.0 3.0 7 7
r 1.01146 2 3 cbr 50 ------- 1 0.0 3.0 2 2
r 1.01166 0 2 cbr 50 ------- 1 0.0 3.0 5 5
+ 1.01166 2 3 cbr 50 ------- 1 0.0 3.0 5 5
- 1.01166 2 3 cbr 50 ------- 1 0.0 3.0 5 5
+ 1.012 0 2 cbr 50 ------- 1 0.0 3.0 8 8
- 1.012 0 2 cbr 50 ------- 1 0.0 3.0 8 8
r 1.01296 2 3 cbr 50 ------- 1 0.0 3.0 3 3
r 1.01316 0 2 cbr 50 ------- 1 0.0 3.0 6 6
+ 1.01316 2 3 cbr 50 ------- 1 0.0 3.0 6 6
- 1.01316 2 3 cbr 50 ------- 1 0.0 3.0 6 6
+ 1.0135 0 2 cbr 50 ------- 1 0.0 3.0 9 9
- 1.0135 0 2 cbr 50 ------- 1 0.0 3.0 9 9
r 1.01446 2 3 cbr 50 ------- 1 0.0 3.0 4 4
r 1.01466 0 2 cbr 50 ------- 1 0.0 3.0 7 7
+ 1.01466 2 3 cbr 50 ------- 1 0.0 3.0 7 7
- 1.01466 2 3 cbr 50 ------- 1 0.0 3.0 7 7
+ 1.015 0 2 cbr 50 ------- 1 0.0 3.0 10 10
- 1.015 0 2 cbr 50 ------- 1 0.0 3.0 10 10
r 1.01596 2 3 cbr 50 ------- 1 0.0 3.0 5 5
r 1.01616 0 2 cbr 50 ------- 1 0.0 3.0 8 8
+ 1.01616 2 3 cbr 50 ------- 1 0.0 3.0 8 8
- 1.01616 2 3 cbr 50 ------- 1 0.0 3.0 8 8
+ 1.0165 0 2 cbr 50 ------- 1 0.0 3.0 11 11
- 1.0165 0 2 cbr 50 ------- 1 0.0 3.0 11 11
r 1.01746 2 3 cbr 50 ------- 1 0.0 3.0 6 6
r 1.01766 0 2 cbr 50 ------- 1 0.0 3.0 9 9
+ 1.01766 2 3 cbr 50 ------- 1 0.0 3.0 9 9
- 1.01766 2 3 cbr 50 ------- 1 0.0 3.0 9 9
+ 1.018 0 2 cbr 50 ------- 1 0.0 3.0 12 12
- 1.018 0 2 cbr 50 ------- 1 0.0 3.0 12 12
r 1.01896 2 3 cbr 50 ------- 1 0.0 3.0 7 7
r 1.01916 0 2 cbr 50 ------- 1 0.0 3.0 10 10
+ 1.01916 2 3 cbr 50 ------- 1 0.0 3.0 10 10
- 1.01916 2 3 cbr 50 ------- 1 0.0 3.0 10 10
+ 1.0195 0 2 cbr 50 ------- 1 0.0 3.0 13 13
- 1.0195 0 2 cbr 50 ------- 1 0.0 3.0 13 13
r 1.02046 2 3 cbr 50 ------- 1 0.0 3.0 8 8
r 1.02066 0 2 cbr 50 ------- 1 0.0 3.0 11 11
+ 1.02066 2 3 cbr 50 ------- 1 0.0 3.0 11 11
- 1.02066 2 3 cbr 50 ------- 1 0.0 3.0 11 11
+ 1.021 0 2 cbr 50 ------- 1 0.0 3.0 14 14
- 1.021 0 2 cbr 50 ------- 1 0.0 3.0 14 14
r 1.02196 2 3 cbr 50 ------- 1 0.0 3.0 9 9
r 1.02216 0 2 cbr 50 ------- 1 0.0 3.0 12 12
+ 1.02216 2 3 cbr 50 ------- 1 0.0 3.0 12 12
- 1.02216 2 3 cbr 50 ------- 1 0.0 3.0 12 12
+ 1.0225 0 2 cbr 50 ------- 1 0.0 3.0 15 15
- 1.0225 0 2 cbr 50 ------- 1 0.0 3.0 15 15
r 1.02346 2 3 cbr 50 ------- 1 0.0 3.0 10 10
r 1.02366 0 2 cbr 50 ------- 1 0.0 3.0 13 13
+ 1.02366 2 3 cbr 50 ------- 1 0.0 3.0 13 13
- 1.02366 2 3 cbr 50 ------- 1 0.0 3.0 13 13
+ 1.024 0 2 cbr 50 ------- 1 0.0 3.0 16 16
- 1.024 0 2 cbr 50 ------- 1 0.0 3.0 16 16
r 1.02496 2 3 cbr 50 ------- 1 0.0 3.0 11 11
r 1.02516 0 2 cbr 50 ------- 1 0.0 3.0 14 14
+ 1.02516 2 3 cbr 50 ------- 1 0.0 3.0 14 14
- 1.02516 2 3 cbr 50 ------- 1 0.0 3.0 14 14
+ 1.0255 0 2 cbr 50 ------- 1 0.0 3.0 17 17
- 1.0255 0 2 cbr 50 ------- 1 0.0 3.0 17 17
r 1.02646 2 3 cbr 50 ------- 1 0.0 3.0 12 12
r 1.02666 0 2 cbr 50 ------- 1 0.0 3.0 15 15
+ 1.02666 2 3 cbr 50 ------- 1 0.0 3.0 15 15
- 1.02666 2 3 cbr 50 ------- 1 0.0 3.0 15 15
+ 1.027 0 2 cbr 50 ------- 1 0.0 3.0 18 18
- 1.027 0 2 cbr 50 ------- 1 0.0 3.0 18 18
r 1.02796 2 3 cbr 50 ------- 1 0.0 3.0 13 13
r 1.02816 0 2 cbr 50 ------- 1 0.0 3.0 16 16
+ 1.02816 2 3 cbr 50 ------- 1 0.0 3.0 16 16
- 1.02816 2 3 cbr 50 ------- 1 0.0 3.0 16 16
+ 1.0285 0 2 cbr 50 ------- 1 0.0 3.0 19 19
- 1.0285 0 2 cbr 50 ------- 1 0.0 3.0 19 19
r 1.02946 2 3 cbr 50 ------- 1 0.0 3.0 14 14
r 1.02966 0 2 cbr 50 ------- 1 0.0 3.0 17 17
+ 1.02966 2 3 cbr 50 ------- 1 0.0 3.0 17 17
- 1.02966 2 3 cbr 50 ------- 1 0.0 3.0 17 17
+ 1.03 0 2 cbr 50 ------- 1 0.0 3.0 20 20
- 1.03 0 2 cbr 50 ------- 1 0.0 3.0 20 20
r 1.03096 2 3 cbr 50 ------- 1 0.0 3.0 15 15
r 1.03116 0 2 cbr 50 ------- 1 0.0 3.0 18 18
+ 1.03116 2 3 cbr 50 ------- 1 0.0 3.0 18 18
- 1.03116 2 3 cbr 50 ------- 1 0.0 3.0 18 18
+ 1.0315 0 2 cbr 50 ------- 1 0.0 3.0 21 21
- 1.0315 0 2 cbr 50 ------- 1 0.0 3.0 21 21
r 1.03246 2 3 cbr 50 ------- 1 0.0 3.0 16 16
r 1.03266 0 2 cbr 50 ------- 1 0.0 3.0 19 19
+ 1.03266 2 3 cbr 50 ------- 1 0.0 3.0 19 19
- 1.03266 2 3 cbr 50 ------- 1 0.0 3.0 19 19
+ 1.033 0 2 cbr 50 ------- 1 0.0 3.0 22 22
- 1.033 0 2 cbr 50 ------- 1 0.0 3.0 22 22
r 1.03396 2 3 cbr 50 ------- 1 0.0 3.0 17 17
r 1.03416 0 2 cbr 50 ------- 1 0.0 3.0 20 20
+ 1.03416 2 3 cbr 50 ------- 1 0.0 3.0 20 20
- 1.03416 2 3 cbr 50 ------- 1 0.0 3.0 20 20
+ 1.0345 0 2 cbr 50 ------- 1 0.0 3.0 23 23
- 1.0345 0 2 cbr 50 ------- 1 0.0 3.0 23 23
r 1.03546 2 3 cbr 50 ------- 1 0.0 3.0 18 18
r 1.03566 0 2 cbr 50 ------- 1 0.0 3.0 21 21
+ 1.03566 2 3 cbr 50 ------- 1 0.0 3.0 21 21
- 1.03566 2 3 cbr 50 ------- 1 0.0 3.0 21 21
+ 1.036 0 2 cbr 50 ------- 1 0.0 3.0 24 24
- 1.036 0 2 cbr 50 ------- 1 0.0 3.0 24 24
r 1.03696 2 3 cbr 50 ------- 1 0.0 3.0 19 19
r 1.03716 0 2 cbr 50 ------- 1 0.0 3.0 22 22
+ 1.03716 2 3 cbr 50 ------- 1 0.0 3.0 22 22
- 1.03716 2 3 cbr 50 ------- 1 0.0 3.0 22 22
+ 1.0375 0 2 cbr 50 ------- 1 0.0 3.0 25 25
- 1.0375 0 2 cbr 50 ------- 1 0.0 3.0 25 25
r 1.03846 2 3 cbr 50 ------- 1 0.0 3.0 20 20
r 1.03866 0 2 cbr 50 ------- 1 0.0 3.0 23 23
+ 1.03866 2 3 cbr 50 ------- 1 0.0 3.0 23 23
- 1.03866 2 3 cbr 50 ------- 1 0.0 3.0 23 23
+ 1.039 0 2 cbr 50 ------- 1 0.0 3.0 26 26
- 1.039 0 2 cbr 50 ------- 1 0.0 3.0 26 26
r 1.03996 2 3 cbr 50 ------- 1 0.0 3.0 21 21
r 1.04016 0 2 cbr 50 ------- 1 0.0 3.0 24 24
+ 1.04016 2 3 cbr 50 ------- 1 0.0 3.0 24 24
- 1.04016 2 3 cbr 50 ------- 1 0.0 3.0 24 24
+ 1.0405 0 2 cbr 50 ------- 1 0.0 3.0 27 27
- 1.0405 0 2 cbr 50 ------- 1 0.0 3.0 27 27
r 1.04146 2 3 cbr 50 ------- 1 0.0 3.0 22 22
r 1.04166 0 2 cbr 50 ------- 1 0.0 3.0 25 25
+ 1.04166 2 3 cbr 50 ------- 1 0.0 3.0 25 25
- 1.04166 2 3 cbr 50 ------- 1 0.0 3.0 25 25
+ 1.042 0 2 cbr 50 ------- 1 0.0 3.0 28 28
- 1.042 0 2 cbr 50 ------- 1 0.0 3.0 28 28
r 1.04296 2 3 cbr 50 ------- 1 0.0 3.0 23 23
r 1.04316 0 2 cbr 50 ------- 1 0.0 3.0 26 26
+ 1.04316 2 3 cbr 50 ------- 1 0.0 3.0 26 26
- 1.04316 2 3 cbr 50 ------- 1 0.0 3.0 26 26
+ 1.0435 0 2 cbr 50 ------- 1 0.0 3.0 29 29
- 1.0435 0 2 cbr 50 ------- 1 0.0 3.0 29 29
r 1.04446 2 3 cbr 50 ------- 1 0.0 3.0 24 24
r 1.04466 0 2 cbr 50 ------- 1 0.0 3.0 27 27
+ 1.04466 2 3 cbr 50 ------- 1 0.0 3.0 27 27
- 1.04466 2 3 cbr 50 ------- 1 0.0 3.0 27 27
+ 1.045 0 2 cbr 50 ------- 1 0.0 3.0 30 30
- 1.045 0 2 cbr 50 ------- 1 0.0 3.0 30 30
r 1.04596 2 3 cbr 50 ------- 1 0.0 3.0 25 25
r 1.04616 0 2 cbr 50 ------- 1 0.0 3.0 28 28
+ 1.04616 2 3 cbr 50 ------- 1 0.0 3.0 28 28
- 1.04616 2 3 cbr 50 ------- 1 0.0 3.0 28 28
+ 1.0465 0 2 cbr 50 ------- 1 0.0 3.0 31 31
- 1.0465 0 2 cbr 50 ------- 1 0.0 3.0 31 31
r 1.04746 2 3 cbr 50 ------- 1 0.0 3.0 26 26
r 1.04766 0 2 cbr 50 ------- 1 0.0 3.0 29 29
+ 1.04766 2 3 cbr 50 ------- 1 0.0 3.0 29 29
- 1.04766 2 3 cbr 50 ------- 1 0.0 3.0 29 29
+ 1.048 0 2 cbr 50 ------- 1 0.0 3.0 32 32
- 1.048 0 2 cbr 50 ------- 1 0.0 3.0 32 32
r 1.04896 2 3 cbr 50 ------- 1 0.0 3.0 27 27
r 1.04916 0 2 cbr 50 ------- 1 0.0 3.0 30 30
+ 1.04916 2 3 cbr 50 ------- 1 0.0 3.0 30 30
- 1.04916 2 3 cbr 50 ------- 1 0.0 3.0 30 30
+ 1.0495 0 2 cbr 50 ------- 1 0.0 3.0 33 33
- 1.0495 0 2 cbr 50 ------- 1 0.0 3.0 33 33
r 1.05046 2 3 cbr 50 ------- 1 0.0 3.0 28 28
r 1.05066 0 2 cbr 50 ------- 1 0.0 3.0 31 31
+ 1.05066 2 3 cbr 50 ------- 1 0.0 3.0 31 31
- 1.05066 2 3 cbr 50 ------- 1 0.0 3.0 31 31
+ 1.051 0 2 cbr 50 ------- 1 0.0 3.0 34 34
- 1.051 0 2 cbr 50 ------- 1 0.0 3.0 34 34
r 1.05196 2 3 cbr 50 ------- 1 0.0 3.0 29 29
r 1.05216 0 2 cbr 50 ------- 1 0.0 3.0 32 32
+ 1.05216 2 3 cbr 50 ------- 1 0.0 3.0 32 32
- 1.05216 2 3 cbr 50 ------- 1 0.0 3.0 32 32
+ 1.0525 0 2 cbr 50 ------- 1 0.0 3.0 35 35
- 1.0525 0 2 cbr 50 ------- 1 0.0 3.0 35 35
r 1.05346 2 3 cbr 50 ------- 1 0.0 3.0 30 30
r 1.05366 0 2 cbr 50 ------- 1 0.0 3.0 33 33
+ 1.05366 2 3 cbr 50 ------- 1 0.0 3.0 33 33
- 1.05366 2 3 cbr 50 ------- 1 0.0 3.0 33 33
+ 1.054 0 2 cbr 50 ------- 1 0.0 3.0 36 36
- 1.054 0 2 cbr 50 ------- 1 0.0 3.0 36 36
r 1.05496 2 3 cbr 50 ------- 1 0.0 3.0 31 31
r 1.05516 0 2 cbr 50 ------- 1 0.0 3.0 34 34
+ 1.05516 2 3 cbr 50 ------- 1 0.0 3.0 34 34
- 1.05516 2 3 cbr 50 ------- 1 0.0 3.0 34 34
+ 1.0555 0 2 cbr 50 ------- 1 0.0 3.0 37 37
- 1.0555 0 2 cbr 50 ------- 1 0.0 3.0 37 37
r 1.05646 2 3 cbr 50 ------- 1 0.0 3.0 32 32
r 1.05666 0 2 cbr 50 ------- 1 0.0 3.0 35 35
+ 1.05666 2 3 cbr 50 ------- 1 0.0 3.0 35 35
- 1.05666 2 3 cbr 50 ------- 1 0.0 3.0 35 35
+ 1.057 0 2 cbr 50 ------- 1 0.0 3.0 38 38
- 1.057 0 2 cbr 50 ------- 1 0.0 3.0 38 38
r 1.05796 2 3 cbr 50 ------- 1 0.0 3.0 33 33
r 1.05816 0 2 cbr 50 ------- 1 0.0 3.0 36 36
+ 1.05816 2 3 cbr 50 ------- 1 0.0 3.0 36 36
- 1.05816 2 3 cbr 50 ------- 1 0.0 3.0 36 36
+ 1.0585 0 2 cbr 50 ------- 1 0.0 3.0 39 39
- 1.0585 0 2 cbr 50 ------- 1 0.0 3.0 39 39
r 1.05946 2 3 cbr 50 ------- 1 0.0 3.0 34 34
r 1.05966 0 2 cbr 50 ------- 1 0.0 3.0 37 37
+ 1.05966 2 3 cbr 50 ------- 1 0.0 3.0 37 37
- 1.05966 2 3 cbr 50 ------- 1 0.0 3.0 37 37
+ 1.06 0 2 cbr 50 ------- 1 0.0 3.0 40 40
- 1.06 0 2 cbr 50 ------- 1 0.0 3.0 40 40
r 1.06096 2 3 cbr 50 ------- 1 0.0 3.0 35 35
r 1.06116 0 2 cbr 50 ------- 1 0.0 3.0 38 38
+ 1.06116 2 3 cbr 50 ------- 1 0.0 3.0 38 38
- 1.06116 2 3 cbr 50 ------- 1 0.0 3.0 38 38
+ 1.0615 0 2 cbr 50 ------- 1 0.0 3.0 41 41
- 1.0615 0 2 cbr 50 ------- 1 0.0 3.0 41 41
r 1.06246 2 3 cbr 50 ------- 1 0.0 3.0 36 36
r 1.06266 0 2 cbr 50 ------- 1 0.0 3.0 39 39
+ 1.06266 2 3 cbr 50 ------- 1 0.0 3.0 39 39
- 1.06266 2 3 cbr 50 ------- 1 0.0 3.0 39 39
+ 1.063 0 2 cbr 50 ------- 1 0.0 3.0 42 42
- 1.063 0 2 cbr 50 ------- 1 0.0 3.0 42 42
r 1.06396 2 3 cbr 50 ------- 1 0.0 3.0 37 37
r 1.06416 0 2 cbr 50 ------- 1 0.0 3.0 40 40
+ 1.06416 2 3 cbr 50 ------- 1 0.0 3.0 40 40
- 1.06416 2 3 cbr 50 ------- 1 0.0 3.0 40 40
+ 1.0645 0 2 cbr 50 ------- 1 0.0 3.0 43 43
- 1.0645 0 2 cbr 50 ------- 1 0.0 3.0 43 43
r 1.06546 2 3 cbr 50 ------- 1 0.0 3.0 38 38
r 1.06566 0 2 cbr 50 ------- 1 0.0 3.0 41 41
+ 1.06566 2 3 cbr 50 ------- 1 0.0 3.0 41 41
- 1.06566 2 3 cbr 50 ------- 1 0.0 3.0 41 41
+ 1.066 0 2 cbr 50 ------- 1 0.0 3.0 44 44
- 1.066 0 2 cbr 50 ------- 1 0.0 3.0 44 44
r 1.06696 2 3 cbr 50 ------- 1 0.0 3.0 39 39
r 1.06716 0 2 cbr 50 ------- 1 0.0 3.0 42 42
+ 1.06716 2 3 cbr 50 ------- 1 0.0 3.0 42 42
- 1.06716 2 3 cbr 50 ------- 1 0.0 3.0 42 42
+ 1.0675 0 2 cbr 50 ------- 1 0.0 3.0 45 45
- 1.0675 0 2 cbr 50 ------- 1 0.0 3.0 45 45
r 1.06846 2 3 cbr 50 ------- 1 0.0 3.0 40 40
r 1.06866 0 2 cbr 50 ------- 1 0.0 3.0 43 43
+ 1.06866 2 3 cbr 50 ------- 1 0.0 3.0 43 43
- 1.06866 2 3 cbr 50 ------- 1 0.0 3.0 43 43
+ 1.069 0 2 cbr 50 ------- 1 0.0 3.0 46 46
- 1.069 0 2 cbr 50 ------- 1 0.0 3.0 46 46
r 1.06996 2 3 cbr 50 ------- 1 0.0 3.0 41 41
r 1.07016 0 2 cbr 50 ------- 1 0.0 3.0 44 44
+ 1.07016 2 3 cbr 50 ------- 1 0.0 3.0 44 44
- 1.07016 2 3 cbr 50 ------- 1 0.0 3.0 44 44
+ 1.0705 0 2 cbr 50 ------- 1 0.0 3.0 47 47
- 1.0705 0 2 cbr 50 ------- 1 0.0 3.0 47 47
r 1.07146 2 3 cbr 50 ------- 1 0.0 3.0 42 42
r 1.07166 0 2 cbr 50 ------- 1 0.0 3.0 45 45
+ 1.07166 2 3 cbr 50 ------- 1 0.0 3.0 45 45
- 1.07166 2 3 cbr 50 ------- 1 0.0 3.0 45 45
+ 1.072 0 2 cbr 50 ------- 1 0.0 3.0 48 48
- 1.072 0 2 cbr 50 ------- 1 0.0 3.0 48 48
r 1.07296 2 3 cbr 50 ------- 1 0.0 3.0 43 43
r 1.07316 0 2 cbr 50 ------- 1 0.0 3.0 46 46
+ 1.07316 2 3 cbr 50 ------- 1 0.0 3.0 46 46
- 1.07316 2 3 cbr 50 ------- 1 0.0 3.0 46 46
+ 1.0735 0 2 cbr 50 ------- 1 0.0 3.0 49 49
- 1.0735 0 2 cbr 50 ------- 1 0.0 3.0 49 49
r 1.07446 2 3 cbr 50 ------- 1 0.0 3.0 44 44
r 1.07466 0 2 cbr 50 ------- 1 0.0 3.0 47 47
+ 1.07466 2 3 cbr 50 ------- 1 0.0 3.0 47 47
- 1.07466 2 3 cbr 50 ------- 1 0.0 3.0 47 47
+ 1.075 0 2 cbr 50 ------- 1 0.0 3.0 50 50
- 1.075 0 2 cbr 50 ------- 1 0.0 3.0 50 50
r 1.07596 2 3 cbr 50 ------- 1 0.0 3.0 45 45
r 1.07616 0 2 cbr 50 ------- 1 0.0 3.0 48 48
+ 1.07616 2 3 cbr 50 ------- 1 0.0 3.0 48 48
- 1.07616 2 3 cbr 50 ------- 1 0.0 3.0 48 48
+ 1.0765 0 2 cbr 50 ------- 1 0.0 3.0 51 51
- 1.0765 0 2 cbr 50 ------- 1 0.0 3.0 51 51
r 1.07746 2 3 cbr 50 ------- 1 0.0 3.0 46 46
r 1.07766 0 2 cbr 50 ------- 1 0.0 3.0 49 49
+ 1.07766 2 3 cbr 50 ------- 1 0.0 3.0 49 49
- 1.07766 2 3 cbr 50 ------- 1 0.0 3.0 49 49
+ 1.078 0 2 cbr 50 ------- 1 0.0 3.0 52 52
- 1.078 0 2 cbr 50 ------- 1 0.0 3.0 52 52
r 1.07896 2 3 cbr 50 ------- 1 0.0 3.0 47 47
r 1.07916 0 2 cbr 50 ------- 1 0.0 3.0 50 50
+ 1.07916 2 3 cbr 50 ------- 1 0.0 3.0 50 50
- 1.07916 2 3 cbr 50 ------- 1 0.0 3.0 50 50
+ 1.0795 0 2 cbr 50 ------- 1 0.0 3.0 53 53
- 1.0795 0 2 cbr 50 ------- 1 0.0 3.0 53 53
r 1.08046 2 3 cbr 50 ------- 1 0.0 3.0 48 48
r 1.08066 0 2 cbr 50 ------- 1 0.0 3.0 51 51
+ 1.08066 2 3 cbr 50 ------- 1 0.0 3.0 51 51
- 1.08066 2 3 cbr 50 ------- 1 0.0 3.0 51 51
+ 1.081 0 2 cbr 50 ------- 1 0.0 3.0 54 54
- 1.081 0 2 cbr 50 ------- 1 0.0 3.0 54 54
r 1.08196 2 3 cbr 50 ------- 1 0.0 3.0 49 49
r 1.08216 0 2 cbr 50 ------- 1 0.0 3.0 52 52
+ 1.08216 2 3 cbr 50 ------- 1 0.0 3.0 52 52
- 1.08216 2 3 cbr 50 ------- 1 0.0 3.0 52 52
+ 1.0825 0 2 cbr 50 ------- 1 0.0 3.0 55 55
- 1.0825 0 2 cbr 50 ------- 1 0.0 3.0 55 55
r 1.08346 2 3 cbr 50 ------- 1 0.0 3.0 50 50
r 1.08366 0 2 cbr 50 ------- 1 0.0 3.0 53 53
+ 1.08366 2 3 cbr 50 ------- 1 0.0 3.0 53 53
- 1.08366 2 3 cbr 50 ------- 1 0.0 3.0 53 53
+ 1.084 0 2 cbr 50 ------- 1 0.0 3.0 56 56
- 1.084 0 2 cbr 50 ------- 1 0.0 3.0 56 56
r 1.08496 2 3 cbr 50 ------- 1 0.0 3.0 51 51
r 1.08516 0 2 cbr 50 ------- 1 0.0 3.0 54 54
+ 1.08516 2 3 cbr 50 ------- 1 0.0 3.0 54 54
- 1.08516 2 3 cbr 50 ------- 1 0.0 3.0 54 54
+ 1.0855 0 2 cbr 50 ------- 1 0.0 3.0 57 57
- 1.0855 0 2 cbr 50 ------- 1 0.0 3.0 57 57
r 1.08646 2 3 cbr 50 ------- 1 0.0 3.0 52 52
r 1.08666 0 2 cbr 50 ------- 1 0.0 3.0 55 55
+ 1.08666 2 3 cbr 50 ------- 1 0.0 3.0 55 55
- 1.08666 2 3 cbr 50 ------- 1 0.0 3.0 55 55
+ 1.087 0 2 cbr 50 ------- 1 0.0 3.0 58 58
- 1.087 0 2 cbr 50 ------- 1 0.0 3.0 58 58
r 1.08796 2 3 cbr 50 ------- 1 0.0 3.0 53 53
r 1.08816 0 2 cbr 50 ------- 1 0.0 3.0 56 56
+ 1.08816 2 3 cbr 50 ------- 1 0.0 3.0 56 56
- 1.08816 2 3 cbr 50 ------- 1 0.0 3.0 56 56
+ 1.0885 0 2 cbr 50 ------- 1 0.0 3.0 59 59
- 1.0885 0 2 cbr 50 ------- 1 0.0 3.0 59 59
r 1.08946 2 3 cbr 50 ------- 1 0.0 3.0 54 54
r 1.08966 0 2 cbr 50 ------- 1 0.0 3.0 57 57
+ 1.08966 2 3 cbr 50 ------- 1 0.0 3.0 57 57
- 1.08966 2 3 cbr 50 ------- 1 0.0 3.0 57 57
+ 1.09 0 2 cbr 50 ------- 1 0.0 3.0 60 60
- 1.09 0 2 cbr 50 ------- 1 0.0 3.0 60 60
r 1.09096 2 3 cbr 50 ------- 1 0.0 3.0 55 55
r 1.09116 0 2 cbr 50 ------- 1 0.0 3.0 58 58
+ 1.09116 2 3 cbr 50 ------- 1 0.0 3.0 58 58
- 1.09116 2 3 cbr 50 ------- 1 0.0 3.0 58 58
+ 1.0915 0 2 cbr 50 ------- 1 0.0 3.0 61 61
- 1.0915 0 2 cbr 50 ------- 1 0.0 3.0 61 61
r 1.09246 2 3 cbr 50 ------- 1 0.0 3.0 56 56
r 1.09266 0 2 cbr 50 ------- 1 0.0 3.0 59 59
+ 1.09266 2 3 cbr 50 ------- 1 0.0 3.0 59 59
- 1.09266 2 3 cbr 50 ------- 1 0.0 3.0 59 59
+ 1.093 0 2 cbr 50 ------- 1 0.0 3.0 62 62
- 1.093 0 2 cbr 50 ------- 1 0.0 3.0 62 62
r 1.09396 2 3 cbr 50 ------- 1 0.0 3.0 57 57
r 1.09416 0 2 cbr 50 ------- 1 0.0 3.0 60 60
+ 1.09416 2 3 cbr 50 ------- 1 0.0 3.0 60 60
- 1.09416 2 3 cbr 50 ------- 1 0.0 3.0 60 60
+ 1.0945 0 2 cbr 50 ------- 1 0.0 3.0 63 63
- 1.0945 0 2 cbr 50 ------- 1 0.0 3.0 63 63
r 1.09546 2 3 cbr 50 ------- 1 0.0 3.0 58 58
r 1.09566 0 2 cbr 50 ------- 1 0.0 3.0 61 61
+ 1.09566 2 3 cbr 50 ------- 1 0.0 3.0 61 61
- 1.09566 2 3 cbr 50 ------- 1 0.0 3.0 61 61
+ 1.096 0 2 cbr 50 ------- 1 0.0 3.0 64 64
- 1.096 0 2 cbr 50 ------- 1 0.0 3.0 64 64
r 1.09696 2 3 cbr 50 ------- 1 0.0 3.0 59 59
r 1.09716 0 2 cbr 50 ------- 1 0.0 3.0 62 62
+ 1.09716 2 3 cbr 50 ------- 1 0.0 3.0 62 62
- 1.09716 2 3 cbr 50 ------- 1 0.0 3.0 62 62
+ 1.0975 0 2 cbr 50 ------- 1 0.0 3.0 65 65
- 1.0975 0 2 cbr 50 ------- 1 0.0 3.0 65 65
r 1.09846 2 3 cbr 50 ------- 1 0.0 3.0 60 60
r 1.09866 0 2 cbr 50 ------- 1 0.0 3.0 63 63
+ 1.09866 2 3 cbr 50 ------- 1 0.0 3.0 63 63
- 1.09866 2 3 cbr 50 ------- 1 0.0 3.0 63 63
+ 1.099 0 2 cbr 50 ------- 1 0.0 3.0 66 66
- 1.099 0 2 cbr 50 ------- 1 0.0 3.0 66 66
r 1.09996 2 3 cbr 50 ------- 1 0.0 3.0 61 61
r 1.10016 0 2 cbr 50 ------- 1 0.0 3.0 64 64
+ 1.10016 2 3 cbr 50 ------- 1 0.0 3.0 64 64
- 1.10016 2 3 cbr 50 ------- 1 0.0 3.0 64 64
+ 1.1005 0 2 cbr 50 ------- 1 0.0 3.0 67 67
- 1.1005 0 2 cbr 50 ------- 1 0.0 3.0 67 67
r 1.10146 2 3 cbr 50 ------- 1 0.0 3.0 62 62
r 1.10166 0 2 cbr 50 ------- 1 0.0 3.0 65 65
+ 1.10166 2 3 cbr 50 ------- 1 0.0 3.0 65 65
- 1.10166 2 3 cbr 50 ------- 1 0.0 3.0 65 65
+ 1.102 0 2 cbr 50 ------- 1 0.0 3.0 68 68
- 1.102 0 2 cbr 50 ------- 1 0.0 3.0 68 68
r 1.10296 2 3 cbr 50 ------- 1 0.0 3.0 63 63
r 1.10316 0 2 cbr 50 ------- 1 0.0 3.0 66 66
+ 1.10316 2 3 cbr 50 ------- 1 0.0 3.0 66 66
- 1.10316 2 3 cbr 50 ------- 1 0.0 3.0 66 66
+ 1.1035 0 2 cbr 50 ------- 1 0.0 3.0 69 69
- 1.1035 0 2 cbr 50 ------- 1 0.0 3.0 69 69
r 1.10446 2 3 cbr 50 ------- 1 0.0 3.0 64 64
r 1.10466 0 2 cbr 50 ------- 1 0.0 3.0 67 67
+ 1.10466 2 3 cbr 50 ------- 1 0.0 3.0 67 67
- 1.10466 2 3 cbr 50 ------- 1 0.0 3.0 67 67
+ 1.105 0 2 cbr 50 ------- 1 0.0 3.0 70 70
- 1.105 0 2 cbr 50 ------- 1 0.0 3.0 70 70
r 1.10596 2 3 cbr 50 ------- 1 0.0 3.0 65 65
r 1.10616 0 2 cbr 50 ------- 1 0.0 3.0 68 68
+ 1.10616 2 3 cbr 50 ------- 1 0.0 3.0 68 68
- 1.10616 2 3 cbr 50 ------- 1 0.0 3.0 68 68
+ 1.1065 0 2 cbr 50 ------- 1 0.0 3.0 71 71
- 1.1065 0 2 cbr 50 ------- 1 0.0 3.0 71 71
r 1.10746 2 3 cbr 50 ------- 1 0.0 3.0 66 66
r 1.10766 0 2 cbr 50 ------- 1 0.0 3.0 69 69
+ 1.10766 2 3 cbr 50 ------- 1 0.0 3.0 69 69
- 1.10766 2 3 cbr 50 ------- 1 0.0 3.0 69 69
+ 1.108 0 2 cbr 50 ------- 1 0.0 3.0 72 72
- 1.108 0 2 cbr 50 ------- 1 0.0 3.0 72 72
r 1.10896 2 3 cbr 50 ------- 1 0.0 3.0 67 67
r 1.10916 0 2 cbr 50 ------- 1 0.0 3.0 70 70
+ 1.10916 2 3 cbr 50 ------- 1 0.0 3.0 70 70
- 1.10916 2 3 cbr 50 ------- 1 0.0 3.0 70 70
+ 1.1095 0 2 cbr 50 ------- 1 0.0 3.0 73 73
- 1.1095 0 2 cbr 50 ------- 1 0.0 3.0 73 73
r 1.11046 2 3 cbr 50 ------- 1 0.0 3.0 68 68
r 1.11066 0 2 cbr 50 ------- 1 0.0 3.0 71 71
+ 1.11066 2 3 cbr 50 ------- 1 0.0 3.0 71 71
- 1.11066 2 3 cbr 50 ------- 1 0.0 3.0 71 71
+ 1.111 0 2 cbr 50 ------- 1 0.0 3.0 74 74
- 1.111 0 2 cbr 50 ------- 1 0.0 3.0 74 74
r 1.11196 2 3 cbr 50 ------- 1 0.0 3.0 69 69
r 1.11216 0 2 cbr 50 ------- 1 0.0 3.0 72 72
+ 1.11216 2 3 cbr 50 ------- 1 0.0 3.0 72 72
- 1.11216 2 3 cbr 50 ------- 1 0.0 3.0 72 72
+ 1.1125 0 2 cbr 50 ------- 1 0.0 3.0 75 75
- 1.1125 0 2 cbr 50 ------- 1 0.0 3.0 75 75
r 1.11346 2 3 cbr 50 ------- 1 0.0 3.0 70 70
r 1.11366 0 2 cbr 50 ------- 1 0.0 3.0 73 73
+ 1.11366 2 3 cbr 50 ------- 1 0.0 3.0 73 73
- 1.11366 2 3 cbr 50 ------- 1 0.0 3.0 73 73
+ 1.114 0 2 cbr 50 ------- 1 0.0 3.0 76 76
- 1.114 0 2 cbr 50 ------- 1 0.0 3.0 76 76
r 1.11496 2 3 cbr 50 ------- 1 0.0 3.0 71 71
r 1.11516 0 2 cbr 50 ------- 1 0.0 3.0 74 74
+ 1.11516 2 3 cbr 50 ------- 1 0.0 3.0 74 74
- 1.11516 2 3 cbr 50 ------- 1 0.0 3.0 74 74
+ 1.1155 0 2 cbr 50 ------- 1 0.0 3.0 77 77
- 1.1155 0 2 cbr 50 ------- 1 0.0 3.0 77 77
r 1.11646 2 3 cbr 50 ------- 1 0.0 3.0 72 72
r 1.11666 0 2 cbr 50 ------- 1 0.0 3.0 75 75
+ 1.11666 2 3 cbr 50 ------- 1 0.0 3.0 75 75
- 1.11666 2 3 cbr 50 ------- 1 0.0 3.0 75 75
+ 1.117 0 2 cbr 50 ------- 1 0.0 3.0 78 78
- 1.117 0 2 cbr 50 ------- 1 0.0 3.0 78 78
r 1.11796 2 3 cbr 50 ------- 1 0.0 3.0 73 73
r 1.11816 0 2 cbr 50 ------- 1 0.0 3.0 76 76
+ 1.11816 2 3 cbr 50 ------- 1 0.0 3.0 76 76
- 1.11816 2 3 cbr 50 ------- 1 0.0 3.0 76 76
+ 1.1185 0 2 cbr 50 ------- 1 0.0 3.0 79 79
- 1.1185 0 2 cbr 50 ------- 1 0.0 3.0 79 79
r 1.11946 2 3 cbr 50 ------- 1 0.0 3.0 74 74
r 1.11966 0 2 cbr 50 ------- 1 0.0 3.0 77 77
+ 1.11966 2 3 cbr 50 ------- 1 0.0 3.0 77 77
- 1.11966 2 3 cbr 50 ------- 1 0.0 3.0 77 77
+ 1.12 0 2 cbr 50 ------- 1 0.0 3.0 80 80
- 1.12 0 2 cbr 50 ------- 1 0.0 3.0 80 80
r 1.12096 2 3 cbr 50 ------- 1 0.0 3.0 75 75
r 1.12116 0 2 cbr 50 ------- 1 0.0 3.0 78 78
+ 1.12116 2 3 cbr 50 ------- 1 0.0 3.0 78 78
- 1.12116 2 3 cbr 50 ------- 1 0.0 3.0 78 78
+ 1.1215 0 2 cbr 50 ------- 1 0.0 3.0 81 81
- 1.1215 0 2 cbr 50 ------- 1 0.0 3.0 81 81
r 1.12246 2 3 cbr 50 ------- 1 0.0 3.0 76 76
r 1.12266 0 2 cbr 50 ------- 1 0.0 3.0 79 79
+ 1.12266 2 3 cbr 50 ------- 1 0.0 3.0 79 79
- 1.12266 2 3 cbr 50 ------- 1 0.0 3.0 79 79
+ 1.123 0 2 cbr 50 ------- 1 0.0 3.0 82 82
- 1.123 0 2 cbr 50 ------- 1 0.0 3.0 82 82
r 1.12396 2 3 cbr 50 ------- 1 0.0 3.0 77 77
r 1.12416 0 2 cbr 50 ------- 1 0.0 3.0 80 80
+ 1.12416 2 3 cbr 50 ------- 1 0.0 3.0 80 80
- 1.12416 2 3 cbr 50 ------- 1 0.0 3.0 80 80
+ 1.1245 0 2 cbr 50 ------- 1 0.0 3.0 83 83
- 1.1245 0 2 cbr 50 ------- 1 0.0 3.0 83 83
r 1.12546 2 3 cbr 50 ------- 1 0.0 3.0 78 78
r 1.12566 0 2 cbr 50 ------- 1 0.0 3.0 81 81
+ 1.12566 2 3 cbr 50 ------- 1 0.0 3.0 81 81
- 1.12566 2 3 cbr 50 ------- 1 0.0 3.0 81 81
+ 1.126 0 2 cbr 50 ------- 1 0.0 3.0 84 84
- 1.126 0 2 cbr 50 ------- 1 0.0 3.0 84 84
r 1.12696 2 3 cbr 50 ------- 1 0.0 3.0 79 79
r 1.12716 0 2 cbr 50 ------- 1 0.0 3.0 82 82
+ 1.12716 2 3 cbr 50 ------- 1 0.0 3.0 82 82
- 1.12716 2 3 cbr 50 ------- 1 0.0 3.0 82 82
+ 1.1275 0 2 cbr 50 ------- 1 0.0 3.0 85 85
- 1.1275 0 2 cbr 50 ------- 1 0.0 3.0 85 85
r 1.12846 2 3 cbr 50 ------- 1 0.0 3.0 80 80
r 1.12866 0 2 cbr 50 ------- 1 0.0 3.0 83 83
+ 1.12866 2 3 cbr 50 ------- 1 0.0 3.0 83 83
- 1.12866 2 3 cbr 50 ------- 1 0.0 3.0 83 83
+ 1.129 0 2 cbr 50 ------- 1 0.0 3.0 86 86
- 1.129 0 2 cbr 50 ------- 1 0.0 3.0 86 86
r 1.12996 2 3 cbr 50 ------- 1 0.0 3.0 81 81
r 1.13016 0 2 cbr 50 ------- 1 0.0 3.0 84 84
+ 1.13016 2 3 cbr 50 ------- 1 0.0 3.0 84 84
- 1.13016 2 3 cbr 50 ------- 1 0.0 3.0 84 84
+ 1.1305 0 2 cbr 50 ------- 1 0.0 3.0 87 87
- 1.1305 0 2 cbr 50 ------- 1 0.0 3.0 87 87
r 1.13146 2 3 cbr 50 ------- 1 0.0 3.0 82 82
r 1.13166 0 2 cbr 50 ------- 1 0.0 3.0 85 85
+ 1.13166 2 3 cbr 50 ------- 1 0.0 3.0 85 85
- 1.13166 2 3 cbr 50 ------- 1 0.0 3.0 85 85
+ 1.132 0 2 cbr 50 ------- 1 0.0 3.0 88 88
- 1.132 0 2 cbr 50 ------- 1 0.0 3.0 88 88
r 1.13296 2 3 cbr 50 ------- 1 0.0 3.0 83 83
r 1.13316 0 2 cbr 50 ------- 1 0.0 3.0 86 86
+ 1.13316 2 3 cbr 50 ------- 1 0.0 3.0 86 86
- 1.13316 2 3 cbr 50 ------- 1 0.0 3.0 86 86
+ 1.1335 0 2 cbr 50 ------- 1 0.0 3.0 89 89
- 1.1335 0 2 cbr 50 ------- 1 0.0 3.0 89 89
r 1.13446 2 3 cbr 50 ------- 1 0.0 3.0 84 84
r 1.13466 0 2 cbr 50 ------- 1 0.0 3.0 87 87
+ 1.13466 2 3 cbr 50 ------- 1 0.0 3.0 87 87
- 1.13466 2 3 cbr 50 ------- 1 0.0 3.0 87 87
+ 1.135 0 2 cbr 50 ------- 1 0.0 3.0 90 90
- 1.135 0 2 cbr 50 ------- 1 0.0 3.0 90 90
r 1.13596 2 3 cbr 50 ------- 1 0.0 3.0 85 85
r 1.13616 0 2 cbr 50 ------- 1 0.0 3.0 88 88
+ 1.13616 2 3 cbr 50 ------- 1 0.0 3.0 88 88
- 1.13616 2 3 cbr 50 ------- 1 0.0 3.0 88 88
+ 1.1365 0 2 cbr 50 ------- 1 0.0 3.0 91 91
- 1.1365 0 2 cbr 50 ------- 1 0.0 3.0 91 91
r 1.13746 2 3 cbr 50 ------- 1 0.0 3.0 86 86
r 1.13766 0 2 cbr 50 ------- 1 0.0 3.0 89 89
+ 1.13766 2 3 cbr 50 ------- 1 0.0 3.0 89 89
- 1.13766 2 3 cbr 50 ------- 1 0.0 3.0 89 89
+ 1.138 0 2 cbr 50 ------- 1 0.0 3.0 92 92
- 1.138 0 2 cbr 50 ------- 1 0.0 3.0 92 92
r 1.13896 2 3 cbr 50 ------- 1 0.0 3.0 87 87
r 1.13916 0 2 cbr 50 ------- 1 0.0 3.0 90 90
+ 1.13916 2 3 cbr 50 ------- 1 0.0 3.0 90 90
- 1.13916 2 3 cbr 50 ------- 1 0.0 3.0 90 90
+ 1.1395 0 2 cbr 50 ------- 1 0.0 3.0 93 93
- 1.1395 0 2 cbr 50 ------- 1 0.0 3.0 93 93
r 1.14046 2 3 cbr 50 ------- 1 0.0 3.0 88 88
r 1.14066 0 2 cbr 50 ------- 1 0.0 3.0 91 91
+ 1.14066 2 3 cbr 50 ------- 1 0.0 3.0 91 91
- 1.14066 2 3 cbr 50 ------- 1 0.0 3.0 91 91
+ 1.141 0 2 cbr 50 ------- 1 0.0 3.0 94 94
- 1.141 0 2 cbr 50 ------- 1 0.0 3.0 94 94
r 1.14196 2 3 cbr 50 ------- 1 0.0 3.0 89 89
r 1.14216 0 2 cbr 50 ------- 1 0.0 3.0 92 92
+ 1.14216 2 3 cbr 50 ------- 1 0.0 3.0 92 92
- 1.14216 2 3 cbr 50 ------- 1 0.0 3.0 92 92
+ 1.1425 0 2 cbr 50 ------- 1 0.0 3.0 95 95
- 1.1425 0 2 cbr 50 ------- 1 0.0 3.0 95 95
r 1.14346 2 3 cbr 50 ------- 1 0.0 3.0 90 90
r 1.14366 0 2 cbr 50 ------- 1 0.0 3.0 93 93
+ 1.14366 2 3 cbr 50 ------- 1 0.0 3.0 93 93
- 1.14366 2 3 cbr 50 ------- 1 0.0 3.0 93 93
+ 1.144 0 2 cbr 50 ------- 1 0.0 3.0 96 96
- 1.144 0 2 cbr 50 ------- 1 0.0 3.0 96 96
r 1.14496 2 3 cbr 50 ------- 1 0.0 3.0 91 91
r 1.14516 0 2 cbr 50 ------- 1 0.0 3.0 94 94
+ 1.14516 2 3 cbr 50 ------- 1 0.0 3.0 94 94
- 1.14516 2 3 cbr 50 ------- 1 0.0 3.0 94 94
+ 1.1455 0 2 cbr 50 ------- 1 0.0 3.0 97 97
- 1.1455 0 2 cbr 50 ------- 1 0.0 3.0 97 97
r 1.14646 2 3 cbr 50 ------- 1 0.0 3.0 92 92
r 1.14666 0 2 cbr 50 ------- 1 0.0 3.0 95 95
+ 1.14666 2 3 cbr 50 ------- 1 0.0 3.0 95 95
- 1.14666 2 3 cbr 50 ------- 1 0.0 3.0 95 95
+ 1.147 0 2 cbr 50 ------- 1 0.0 3.0 98 98
- 1.147 0 2 cbr 50 ------- 1 0.0 3.0 98 98
r 1.14796 2 3 cbr 50 ------- 1 0.0 3.0 93 93
r 1.14816 0 2 cbr 50 ------- 1 0.0 3.0 96 96
+ 1.14816 2 3 cbr 50 ------- 1 0.0 3.0 96 96
- 1.14816 2 3 cbr 50 ------- 1 0.0 3.0 96 96
+ 1.1485 0 2 cbr 50 ------- 1 0.0 3.0 99 99
- 1.1485 0 2 cbr 50 ------- 1 0.0 3.0 99 99
r 1.14946 2 3 cbr 50 ------- 1 0.0 3.0 94 94
r 1.14966 0 2 cbr 50 ------- 1 0.0 3.0 97 97
+ 1.14966 2 3 cbr 50 ------- 1 0.0 3.0 97 97
- 1.14966 2 3 cbr 50 ------- 1 0.0 3.0 97 97
+ 1.15 0 2 cbr 50 ------- 1 0.0 3.0 100 100
- 1.15 0 2 cbr 50 ------- 1 0.0 3.0 100 100
r 1.15096 2 3 cbr 50 ------- 1 0.0 3.0 95 95
r 1.15116 0 2 cbr 50 ------- 1 0.0 3.0 98 98
+ 1.15116 2 3 cbr 50 ------- 1 0.0 3.0 98 98
- 1.15116 2 3 cbr 50 ------- 1 0.0 3.0 98 98
+ 1.1515 0 2 cbr 50 ------- 1 0.0 3.0 101 101
- 1.1515 0 2 cbr 50 ------- 1 0.0 3.0 101 101
r 1.15246 2 3 cbr 50 ------- 1 0.0 3.0 96 96
r 1.15266 0 2 cbr 50 ------- 1 0.0 3.0 99 99
+ 1.15266 2 3 cbr 50 ------- 1 0.0 3.0 99 99
- 1.15266 2 3 cbr 50 ------- 1 0.0 3.0 99 99
+ 1.153 0 2 cbr 50 ------- 1 0.0 3.0 102 102
- 1.153 0 2 cbr 50 ------- 1 0.0 3.0 102 102
r 1.15396 2 3 cbr 50 ------- 1 0.0 3.0 97 97
r 1.15416 0 2 cbr 50 ------- 1 0.0 3.0 100 100
+ 1.15416 2 3 cbr 50 ------- 1 0.0 3.0 100 100
- 1.15416 2 3 cbr 50 ------- 1 0.0 3.0 100 100
+ 1.1545 0 2 cbr 50 ------- 1 0.0 3.0 103 103
- 1.1545 0 2 cbr 50 ------- 1 0.0 3.0 103 103
r 1.15546 2 3 cbr 50 ------- 1 0.0 3.0 98 98
r 1.15566 0 2 cbr 50 ------- 1 0.0 3.0 101 101
+ 1.15566 2 3 cbr 50 ------- 1 0.0 3.0 101 101
- 1.15566 2 3 cbr 50 ------- 1 0.0 3.0 101 101
+ 1.156 0 2 cbr 50 ------- 1 0.0 3.0 104 104
- 1.156 0 2 cbr 50 ------- 1 0.0 3.0 104 104
r 1.15696 2 3 cbr 50 ------- 1 0.0 3.0 99 99
r 1.15716 0 2 cbr 50 ------- 1 0.0 3.0 102 102
+ 1.15716 2 3 cbr 50 ------- 1 0.0 3.0 102 102
- 1.15716 2 3 cbr 50 ------- 1 0.0 3.0 102 102
+ 1.1575 0 2 cbr 50 ------- 1 0.0 3.0 105 105
- 1.1575 0 2 cbr 50 ------- 1 0.0 3.0 105 105
r 1.15846 2 3 cbr 50 ------- 1 0.0 3.0 100 100
r 1.15866 0 2 cbr 50 ------- 1 0.0 3.0 103 103
+ 1.15866 2 3 cbr 50 ------- 1 0.0 3.0 103 103
- 1.15866 2 3 cbr 50 ------- 1 0.0 3.0 103 103
+ 1.159 0 2 cbr 50 ------- 1 0.0 3.0 106 106
- 1.159 0 2 cbr 50 ------- 1 0.0 3.0 106 106
r 1.15996 2 3 cbr 50 ------- 1 0.0 3.0 101 101
r 1.16016 0 2 cbr 50 ------- 1 0.0 3.0 104 104
+ 1.16016 2 3 cbr 50 ------- 1 0.0 3.0 104 104
- 1.16016 2 3 cbr 50 ------- 1 0.0 3.0 104 104
+ 1.1605 0 2 cbr 50 ------- 1 0.0 3.0 107 107
- 1.1605 0 2 cbr 50 ------- 1 0.0 3.0 107 107
r 1.16146 2 3 cbr 50 ------- 1 0.0 3.0 102 102
r 1.16166 0 2 cbr 50 ------- 1 0.0 3.0 105 105
+ 1.16166 2 3 cbr 50 ------- 1 0.0 3.0 105 105
- 1.16166 2 3 cbr 50 ------- 1 0.0 3.0 105 105
+ 1.162 0 2 cbr 50 ------- 1 0.0 3.0 108 108
- 1.162 0 2 cbr 50 ------- 1 0.0 3.0 108 108
r 1.16296 2 3 cbr 50 ------- 1 0.0 3.0 103 103
r 1.16316 0 2 cbr 50 ------- 1 0.0 3.0 106 106
+ 1.16316 2 3 cbr 50 ------- 1 0.0 3.0 106 106
- 1.16316 2 3 cbr 50 ------- 1 0.0 3.0 106 106
+ 1.1635 0 2 cbr 50 ------- 1 0.0 3.0 109 109
- 1.1635 0 2 cbr 50 ------- 1 0.0 3.0 109 109
r 1.16446 2 3 cbr 50 ------- 1 0.0 3.0 104 104
r 1.16466 0 2 cbr 50 ------- 1 0.0 3.0 107 107
+ 1.16466 2 3 cbr 50 ------- 1 0.0 3.0 107 107
- 1.16466 2 3 cbr 50 ------- 1 0.0 3.0 107 107
+ 1.165 0 2 cbr 50 ------- 1 0.0 3.0 110 110
- 1.165 0 2 cbr 50 ------- 1 0.0 3.0 110 110
r 1.16596 2 3 cbr 50 ------- 1 0.0 3.0 105 105
r 1.16616 0 2 cbr 50 ------- 1 0.0 3.0 108 108
+ 1.16616 2 3 cbr 50 ------- 1 0.0 3.0 108 108
- 1.16616 2 3 cbr 50 ------- 1 0.0 3.0 108 108
+ 1.1665 0 2 cbr 50 ------- 1 0.0 3.0 111 111
- 1.1665 0 2 cbr 50 ------- 1 0.0 3.0 111 111
r 1.16746 2 3 cbr 50 ------- 1 0.0 3.0 106 106
r 1.16766 0 2 cbr 50 ------- 1 0.0 3.0 109 109
+ 1.16766 2 3 cbr 50 ------- 1 0.0 3.0 109 109
- 1.16766 2 3 cbr 50 ------- 1 0.0 3.0 109 109
+ 1.168 0 2 cbr 50 ------- 1 0.0 3.0 112 112
- 1.168 0 2 cbr 50 ------- 1 0.0 3.0 112 112
r 1.16896 2 3 cbr 50 ------- 1 0.0 3.0 107 107
r 1.16916 0 2 cbr 50 ------- 1 0.0 3.0 110 110
+ 1.16916 2 3 cbr 50 ------- 1 0.0 3.0 110 110
- 1.16916 2 3 cbr 50 ------- 1 0.0 3.0 110 110
+ 1.1695 0 2 cbr 50 ------- 1 0.0 3.0 113 113
- 1.1695 0 2 cbr 50 ------- 1 0.0 3.0 113 113
r 1.17046 2 3 cbr 50 ------- 1 0.0 3.0 108 108
r 1.17066 0 2 cbr 50 ------- 1 0.0 3.0 111 111
+ 1.17066 2 3 cbr 50 ------- 1 0.0 3.0 111 111
- 1.17066 2 3 cbr 50 ------- 1 0.0 3.0 111 111
+ 1.171 0 2 cbr 50 ------- 1 0.0 3.0 114 114