+ 1 0 2 cbr 210 ------- 0 0.0 5.0 0 0
- 1 0 2 cbr 210 ------- 0 0.0 5.0 0 0
+ 1 1 2 tcp 40 ------- 0 1.0 5.1 0 1
- 1 1 2 tcp 40 ------- 0 1.0 5.1 0 1
+ 1.01 0 2 cbr 210 ------- 0 0.0 5.0 1 2
- 1.01 0 2 cbr 210 ------- 0 0.0 5.0 1 2
r 1.015213 1 2 tcp 40 ------- 0 1.0 5.1 0 1
+ 1.015213 2 3 tcp 40 ------- 0 1.0 5.1 0 1
- 1.015213 2 3 tcp 40 ------- 0 1.0 5.1 0 1
r 1.01556 0 2 cbr 210 ------- 0 0.0 5.0 0 0
+ 1.01556 2 3 cbr 210 ------- 0 0.0 5.0 0 0
- 1.01556 2 3 cbr 210 ------- 0 0.0 5.0 0 0
+ 1.02 0 2 cbr 210 ------- 0 0.0 5.0 2 3
- 1.02 0 2 cbr 210 ------- 0 0.0 5.0 2 3
r 1.02556 0 2 cbr 210 ------- 0 0.0 5.0 1 2
+ 1.02556 2 3 cbr 210 ------- 0 0.0 5.0 1 2
- 1.02556 2 3 cbr 210 ------- 0 0.0 5.0 1 2
+ 1.03 0 2 cbr 210 ------- 0 0.0 5.0 3 4
- 1.03 0 2 cbr 210 ------- 0 0.0 5.0 3 4
r 1.035373 2 3 tcp 40 ------- 0 1.0 5.1 0 1
h 1.035373 3 6 tcp 40 ------- 0 1.0 5.1 0 1
r 1.03556 0 2 cbr 210 ------- 0 0.0 5.0 2 3
+ 1.03556 2 3 cbr 210 ------- 0 0.0 5.0 2 3
- 1.03556 2 3 cbr 210 ------- 0 0.0 5.0 2 3
r 1.0364 2 3 cbr 210 ------- 0 0.0 5.0 0 0
h 1.0364 3 6 cbr 210 ------- 0 0.0 5.0 0 0
+ 1.04 0 2 cbr 210 ------- 0 0.0 5.0 4 5
- 1.04 0 2 cbr 210 ------- 0 0.0 5.0 4 5
r 1.04556 0 2 cbr 210 ------- 0 0.0 5.0 3 4
+ 1.04556 2 3 cbr 210 ------- 0 0.0 5.0 3 4
- 1.04556 2 3 cbr 210 ------- 0 0.0 5.0 3 4
r 1.0464 2 3 cbr 210 ------- 0 0.0 5.0 1 2
h 1.0464 3 6 cbr 210 ------- 0 0.0 5.0 1 2
+ 1.05 0 2 cbr 210 ------- 0 0.0 5.0 5 6
- 1.05 0 2 cbr 210 ------- 0 0.0 5.0 5 6
r 1.05556 0 2 cbr 210 ------- 0 0.0 5.0 4 5
+ 1.05556 2 3 cbr 210 ------- 0 0.0 5.0 4 5
- 1.05556 2 3 cbr 210 ------- 0 0.0 5.0 4 5
r 1.0564 2 3 cbr 210 ------- 0 0.0 5.0 2 3
h 1.0564 3 6 cbr 210 ------- 0 0.0 5.0 2 3
+ 1.06 0 2 cbr 210 ------- 0 0.0 5.0 6 7
- 1.06 0 2 cbr 210 ------- 0 0.0 5.0 6 7
r 1.06556 0 2 cbr 210 ------- 0 0.0 5.0 5 6
+ 1.06556 2 3 cbr 210 ------- 0 0.0 5.0 5 6
- 1.06556 2 3 cbr 210 ------- 0 0.0 5.0 5 6
r 1.0664 2 3 cbr 210 ------- 0 0.0 5.0 3 4
h 1.0664 3 6 cbr 210 ------- 0 0.0 5.0 3 4
+ 1.07 0 2 cbr 210 ------- 0 0.0 5.0 7 8
- 1.07 0 2 cbr 210 ------- 0 0.0 5.0 7 8
+ 1.075373 3 6 tcp 40 ------- 0 1.0 5.1 0 1
- 1.075373 3 6 tcp 40 ------- 0 1.0 5.1 0 1
d 1.075377 4 6 tcp 40 ------- 0 1.0 5.1 0 1
r 1.07556 0 2 cbr 210 ------- 0 0.0 5.0 6 7
+ 1.07556 2 3 cbr 210 ------- 0 0.0 5.0 6 7
- 1.07556 2 3 cbr 210 ------- 0 0.0 5.0 6 7
+ 1.0764 3 6 cbr 210 ------- 0 0.0 5.0 0 0
- 1.0764 3 6 cbr 210 ------- 0 0.0 5.0 0 0
r 1.0764 2 3 cbr 210 ------- 0 0.0 5.0 4 5
h 1.0764 3 6 cbr 210 ------- 0 0.0 5.0 4 5
d 1.076404 4 6 cbr 210 ------- 0 0.0 5.0 0 0
+ 1.08 0 2 cbr 210 ------- 0 0.0 5.0 8 9
- 1.08 0 2 cbr 210 ------- 0 0.0 5.0 8 9
r 1.08556 0 2 cbr 210 ------- 0 0.0 5.0 7 8
+ 1.08556 2 3 cbr 210 ------- 0 0.0 5.0 7 8
- 1.08556 2 3 cbr 210 ------- 0 0.0 5.0 7 8
+ 1.0864 3 6 cbr 210 ------- 0 0.0 5.0 1 2
- 1.0864 3 6 cbr 210 ------- 0 0.0 5.0 1 2
r 1.0864 2 3 cbr 210 ------- 0 0.0 5.0 5 6
h 1.0864 3 6 cbr 210 ------- 0 0.0 5.0 5 6
d 1.086404 4 6 cbr 210 ------- 0 0.0 5.0 1 2
+ 1.09 0 2 cbr 210 ------- 0 0.0 5.0 9 10
- 1.09 0 2 cbr 210 ------- 0 0.0 5.0 9 10
r 1.09556 0 2 cbr 210 ------- 0 0.0 5.0 8 9
+ 1.09556 2 3 cbr 210 ------- 0 0.0 5.0 8 9
- 1.09556 2 3 cbr 210 ------- 0 0.0 5.0 8 9
+ 1.0964 3 6 cbr 210 ------- 0 0.0 5.0 2 3
- 1.0964 3 6 cbr 210 ------- 0 0.0 5.0 2 3
r 1.0964 2 3 cbr 210 ------- 0 0.0 5.0 6 7
h 1.0964 3 6 cbr 210 ------- 0 0.0 5.0 6 7
d 1.096404 4 6 cbr 210 ------- 0 0.0 5.0 2 3
+ 1.1 0 2 cbr 210 ------- 0 0.0 5.0 10 11
- 1.1 0 2 cbr 210 ------- 0 0.0 5.0 10 11
r 1.10556 0 2 cbr 210 ------- 0 0.0 5.0 9 10
+ 1.10556 2 3 cbr 210 ------- 0 0.0 5.0 9 10
- 1.10556 2 3 cbr 210 ------- 0 0.0 5.0 9 10
+ 1.1064 3 6 cbr 210 ------- 0 0.0 5.0 3 4
- 1.1064 3 6 cbr 210 ------- 0 0.0 5.0 3 4
r 1.1064 2 3 cbr 210 ------- 0 0.0 5.0 7 8
h 1.1064 3 6 cbr 210 ------- 0 0.0 5.0 7 8
d 1.106404 4 6 cbr 210 ------- 0 0.0 5.0 3 4
+ 1.11 0 2 cbr 210 ------- 0 0.0 5.0 11 12
- 1.11 0 2 cbr 210 ------- 0 0.0 5.0 11 12
r 1.115377 6 5 tcp 40 ------- 0 1.0 5.1 0 1
h 1.115377 5 6 ack 40 ------- 0 5.1 1.0 0 13
r 1.11556 0 2 cbr 210 ------- 0 0.0 5.0 10 11
+ 1.11556 2 3 cbr 210 ------- 0 0.0 5.0 10 11
- 1.11556 2 3 cbr 210 ------- 0 0.0 5.0 10 11
+ 1.1164 3 6 cbr 210 ------- 0 0.0 5.0 4 5
- 1.1164 3 6 cbr 210 ------- 0 0.0 5.0 4 5
r 1.1164 2 3 cbr 210 ------- 0 0.0 5.0 8 9
h 1.1164 3 6 cbr 210 ------- 0 0.0 5.0 8 9
r 1.116404 6 5 cbr 210 ------- 0 0.0 5.0 0 0
d 1.116404 4 6 cbr 210 ------- 0 0.0 5.0 4 5
+ 1.12 0 2 cbr 210 ------- 0 0.0 5.0 12 14
- 1.12 0 2 cbr 210 ------- 0 0.0 5.0 12 14
r 1.12556 0 2 cbr 210 ------- 0 0.0 5.0 11 12
+ 1.12556 2 3 cbr 210 ------- 0 0.0 5.0 11 12
- 1.12556 2 3 cbr 210 ------- 0 0.0 5.0 11 12
+ 1.1264 3 6 cbr 210 ------- 0 0.0 5.0 5 6
- 1.1264 3 6 cbr 210 ------- 0 0.0 5.0 5 6
r 1.1264 2 3 cbr 210 ------- 0 0.0 5.0 9 10
h 1.1264 3 6 cbr 210 ------- 0 0.0 5.0 9 10
r 1.126404 6 5 cbr 210 ------- 0 0.0 5.0 1 2
d 1.126404 4 6 cbr 210 ------- 0 0.0 5.0 5 6
+ 1.13 0 2 cbr 210 ------- 0 0.0 5.0 13 15
- 1.13 0 2 cbr 210 ------- 0 0.0 5.0 13 15
r 1.13556 0 2 cbr 210 ------- 0 0.0 5.0 12 14
+ 1.13556 2 3 cbr 210 ------- 0 0.0 5.0 12 14
- 1.13556 2 3 cbr 210 ------- 0 0.0 5.0 12 14
+ 1.1364 3 6 cbr 210 ------- 0 0.0 5.0 6 7
- 1.1364 3 6 cbr 210 ------- 0 0.0 5.0 6 7
r 1.1364 2 3 cbr 210 ------- 0 0.0 5.0 10 11
h 1.1364 3 6 cbr 210 ------- 0 0.0 5.0 10 11
r 1.136404 6 5 cbr 210 ------- 0 0.0 5.0 2 3
d 1.136404 4 6 cbr 210 ------- 0 0.0 5.0 6 7
+ 1.14 0 2 cbr 210 ------- 0 0.0 5.0 14 16
- 1.14 0 2 cbr 210 ------- 0 0.0 5.0 14 16
r 1.14556 0 2 cbr 210 ------- 0 0.0 5.0 13 15
+ 1.14556 2 3 cbr 210 ------- 0 0.0 5.0 13 15
- 1.14556 2 3 cbr 210 ------- 0 0.0 5.0 13 15
+ 1.1464 3 6 cbr 210 ------- 0 0.0 5.0 7 8
- 1.1464 3 6 cbr 210 ------- 0 0.0 5.0 7 8
r 1.1464 2 3 cbr 210 ------- 0 0.0 5.0 11 12
h 1.1464 3 6 cbr 210 ------- 0 0.0 5.0 11 12
r 1.146404 6 5 cbr 210 ------- 0 0.0 5.0 3 4
d 1.146404 4 6 cbr 210 ------- 0 0.0 5.0 7 8
+ 1.15 0 2 cbr 210 ------- 0 0.0 5.0 15 17
- 1.15 0 2 cbr 210 ------- 0 0.0 5.0 15 17
+ 1.155377 5 6 ack 40 ------- 0 5.1 1.0 0 13
- 1.155377 5 6 ack 40 ------- 0 5.1 1.0 0 13
d 1.155381 4 6 ack 40 ------- 0 5.1 1.0 0 13
r 1.15556 0 2 cbr 210 ------- 0 0.0 5.0 14 16
+ 1.15556 2 3 cbr 210 ------- 0 0.0 5.0 14 16
- 1.15556 2 3 cbr 210 ------- 0 0.0 5.0 14 16
+ 1.1564 3 6 cbr 210 ------- 0 0.0 5.0 8 9
- 1.1564 3 6 cbr 210 ------- 0 0.0 5.0 8 9
r 1.1564 2 3 cbr 210 ------- 0 0.0 5.0 12 14
h 1.1564 3 6 cbr 210 ------- 0 0.0 5.0 12 14
r 1.156404 6 5 cbr 210 ------- 0 0.0 5.0 4 5
d 1.156404 4 6 cbr 210 ------- 0 0.0 5.0 8 9
+ 1.16 0 2 cbr 210 ------- 0 0.0 5.0 16 18
- 1.16 0 2 cbr 210 ------- 0 0.0 5.0 16 18
r 1.16556 0 2 cbr 210 ------- 0 0.0 5.0 15 17
+ 1.16556 2 3 cbr 210 ------- 0 0.0 5.0 15 17
- 1.16556 2 3 cbr 210 ------- 0 0.0 5.0 15 17
+ 1.1664 3 6 cbr 210 ------- 0 0.0 5.0 9 10
- 1.1664 3 6 cbr 210 ------- 0 0.0 5.0 9 10
r 1.1664 2 3 cbr 210 ------- 0 0.0 5.0 13 15
h 1.1664 3 6 cbr 210 ------- 0 0.0 5.0 13 15
r 1.166404 6 5 cbr 210 ------- 0 0.0 5.0 5 6
d 1.166404 4 6 cbr 210 ------- 0 0.0 5.0 9 10
+ 1.17 0 2 cbr 210 ------- 0 0.0 5.0 17 19
- 1.17 0 2 cbr 210 ------- 0 0.0 5.0 17 19
r 1.17556 0 2 cbr 210 ------- 0 0.0 5.0 16 18
+ 1.17556 2 3 cbr 210 ------- 0 0.0 5.0 16 18
- 1.17556 2 3 cbr 210 ------- 0 0.0 5.0 16 18
+ 1.1764 3 6 cbr 210 ------- 0 0.0 5.0 10 11
- 1.1764 3 6 cbr 210 ------- 0 0.0 5.0 10 11
r 1.1764 2 3 cbr 210 ------- 0 0.0 5.0 14 16
h 1.1764 3 6 cbr 210 ------- 0 0.0 5.0 14 16
r 1.176404 6 5 cbr 210 ------- 0 0.0 5.0 6 7
d 1.176404 4 6 cbr 210 ------- 0 0.0 5.0 10 11
+ 1.18 0 2 cbr 210 ------- 0 0.0 5.0 18 20
- 1.18 0 2 cbr 210 ------- 0 0.0 5.0 18 20
r 1.18556 0 2 cbr 210 ------- 0 0.0 5.0 17 19
+ 1.18556 2 3 cbr 210 ------- 0 0.0 5.0 17 19
- 1.18556 2 3 cbr 210 ------- 0 0.0 5.0 17 19
+ 1.1864 3 6 cbr 210 ------- 0 0.0 5.0 11 12
- 1.1864 3 6 cbr 210 ------- 0 0.0 5.0 11 12
r 1.1864 2 3 cbr 210 ------- 0 0.0 5.0 15 17
h 1.1864 3 6 cbr 210 ------- 0 0.0 5.0 15 17
r 1.186404 6 5 cbr 210 ------- 0 0.0 5.0 7 8
d 1.186404 4 6 cbr 210 ------- 0 0.0 5.0 11 12
+ 1.19 0 2 cbr 210 ------- 0 0.0 5.0 19 21
- 1.19 0 2 cbr 210 ------- 0 0.0 5.0 19 21
r 1.195381 6 3 ack 40 ------- 0 5.1 1.0 0 13
+ 1.195381 3 2 ack 40 ------- 0 5.1 1.0 0 13
- 1.195381 3 2 ack 40 ------- 0 5.1 1.0 0 13
r 1.19556 0 2 cbr 210 ------- 0 0.0 5.0 18 20
+ 1.19556 2 3 cbr 210 ------- 0 0.0 5.0 18 20
- 1.19556 2 3 cbr 210 ------- 0 0.0 5.0 18 20
+ 1.1964 3 6 cbr 210 ------- 0 0.0 5.0 12 14
- 1.1964 3 6 cbr 210 ------- 0 0.0 5.0 12 14
r 1.1964 2 3 cbr 210 ------- 0 0.0 5.0 16 18
h 1.1964 3 6 cbr 210 ------- 0 0.0 5.0 16 18
r 1.196404 6 5 cbr 210 ------- 0 0.0 5.0 8 9
d 1.196404 4 6 cbr 210 ------- 0 0.0 5.0 12 14
+ 1.2 0 2 cbr 210 ------- 0 0.0 5.0 20 22
- 1.2 0 2 cbr 210 ------- 0 0.0 5.0 20 22
r 1.20556 0 2 cbr 210 ------- 0 0.0 5.0 19 21
+ 1.20556 2 3 cbr 210 ------- 0 0.0 5.0 19 21
- 1.20556 2 3 cbr 210 ------- 0 0.0 5.0 19 21
+ 1.2064 3 6 cbr 210 ------- 0 0.0 5.0 13 15
- 1.2064 3 6 cbr 210 ------- 0 0.0 5.0 13 15
r 1.2064 2 3 cbr 210 ------- 0 0.0 5.0 17 19
h 1.2064 3 6 cbr 210 ------- 0 0.0 5.0 17 19
r 1.206404 6 5 cbr 210 ------- 0 0.0 5.0 9 10
d 1.206404 4 6 cbr 210 ------- 0 0.0 5.0 13 15
+ 1.21 0 2 cbr 210 ------- 0 0.0 5.0 21 23
- 1.21 0 2 cbr 210 ------- 0 0.0 5.0 21 23
r 1.215541 3 2 ack 40 ------- 0 5.1 1.0 0 13
+ 1.215541 2 1 ack 40 ------- 0 5.1 1.0 0 13
- 1.215541 2 1 ack 40 ------- 0 5.1 1.0 0 13
r 1.21556 0 2 cbr 210 ------- 0 0.0 5.0 20 22
+ 1.21556 2 3 cbr 210 ------- 0 0.0 5.0 20 22
- 1.21556 2 3 cbr 210 ------- 0 0.0 5.0 20 22
+ 1.2164 3 6 cbr 210 ------- 0 0.0 5.0 14 16
- 1.2164 3 6 cbr 210 ------- 0 0.0 5.0 14 16
r 1.2164 2 3 cbr 210 ------- 0 0.0 5.0 18 20
h 1.2164 3 6 cbr 210 ------- 0 0.0 5.0 18 20
r 1.216404 6 5 cbr 210 ------- 0 0.0 5.0 10 11
d 1.216404 4 6 cbr 210 ------- 0 0.0 5.0 14 16
+ 1.22 0 2 cbr 210 ------- 0 0.0 5.0 22 24
- 1.22 0 2 cbr 210 ------- 0 0.0 5.0 22 24
r 1.22556 0 2 cbr 210 ------- 0 0.0 5.0 21 23
+ 1.22556 2 3 cbr 210 ------- 0 0.0 5.0 21 23
- 1.22556 2 3 cbr 210 ------- 0 0.0 5.0 21 23
+ 1.2264 3 6 cbr 210 ------- 0 0.0 5.0 15 17
- 1.2264 3 6 cbr 210 ------- 0 0.0 5.0 15 17
r 1.2264 2 3 cbr 210 ------- 0 0.0 5.0 19 21
h 1.2264 3 6 cbr 210 ------- 0 0.0 5.0 19 21
r 1.226404 6 5 cbr 210 ------- 0 0.0 5.0 11 12
d 1.226404 4 6 cbr 210 ------- 0 0.0 5.0 15 17
+ 1.23 0 2 cbr 210 ------- 0 0.0 5.0 23 25
- 1.23 0 2 cbr 210 ------- 0 0.0 5.0 23 25
r 1.230755 2 1 ack 40 ------- 0 5.1 1.0 0 13
+ 1.230755 1 2 tcp 1040 ------- 0 1.0 5.1 1 26
- 1.230755 1 2 tcp 1040 ------- 0 1.0 5.1 1 26
+ 1.230755 1 2 tcp 1040 ------- 0 1.0 5.1 2 27
r 1.23556 0 2 cbr 210 ------- 0 0.0 5.0 22 24
+ 1.23556 2 3 cbr 210 ------- 0 0.0 5.0 22 24
- 1.23556 2 3 cbr 210 ------- 0 0.0 5.0 22 24
- 1.236301 1 2 tcp 1040 ------- 0 1.0 5.1 2 27
+ 1.2364 3 6 cbr 210 ------- 0 0.0 5.0 16 18
- 1.2364 3 6 cbr 210 ------- 0 0.0 5.0 16 18
r 1.2364 2 3 cbr 210 ------- 0 0.0 5.0 20 22
h 1.2364 3 6 cbr 210 ------- 0 0.0 5.0 20 22
r 1.236404 6 5 cbr 210 ------- 0 0.0 5.0 12 14
d 1.236404 4 6 cbr 210 ------- 0 0.0 5.0 16 18
+ 1.24 0 2 cbr 210 ------- 0 0.0 5.0 24 28
- 1.24 0 2 cbr 210 ------- 0 0.0 5.0 24 28
r 1.24556 0 2 cbr 210 ------- 0 0.0 5.0 23 25
+ 1.24556 2 3 cbr 210 ------- 0 0.0 5.0 23 25
- 1.24556 2 3 cbr 210 ------- 0 0.0 5.0 23 25
+ 1.2464 3 6 cbr 210 ------- 0 0.0 5.0 17 19
- 1.2464 3 6 cbr 210 ------- 0 0.0 5.0 17 19
r 1.2464 2 3 cbr 210 ------- 0 0.0 5.0 21 23
h 1.2464 3 6 cbr 210 ------- 0 0.0 5.0 21 23
r 1.246404 6 5 cbr 210 ------- 0 0.0 5.0 13 15
d 1.246404 4 6 cbr 210 ------- 0 0.0 5.0 17 19
+ 1.25 0 2 cbr 210 ------- 0 0.0 5.0 25 29
- 1.25 0 2 cbr 210 ------- 0 0.0 5.0 25 29
r 1.251301 1 2 tcp 1040 ------- 0 1.0 5.1 1 26
+ 1.251301 2 3 tcp 1040 ------- 0 1.0 5.1 1 26
- 1.251301 2 3 tcp 1040 ------- 0 1.0 5.1 1 26
r 1.25556 0 2 cbr 210 ------- 0 0.0 5.0 24 28
+ 1.25556 2 3 cbr 210 ------- 0 0.0 5.0 24 28
- 1.25556 2 3 cbr 210 ------- 0 0.0 5.0 24 28
+ 1.2564 3 6 cbr 210 ------- 0 0.0 5.0 18 20
- 1.2564 3 6 cbr 210 ------- 0 0.0 5.0 18 20
r 1.2564 2 3 cbr 210 ------- 0 0.0 5.0 22 24
h 1.2564 3 6 cbr 210 ------- 0 0.0 5.0 22 24
r 1.256404 6 5 cbr 210 ------- 0 0.0 5.0 14 16
d 1.256404 4 6 cbr 210 ------- 0 0.0 5.0 18 20
r 1.256848 1 2 tcp 1040 ------- 0 1.0 5.1 2 27
+ 1.256848 2 3 tcp 1040 ------- 0 1.0 5.1 2 27
- 1.256848 2 3 tcp 1040 ------- 0 1.0 5.1 2 27
+ 1.26 0 2 cbr 210 ------- 0 0.0 5.0 26 30
- 1.26 0 2 cbr 210 ------- 0 0.0 5.0 26 30
r 1.26556 0 2 cbr 210 ------- 0 0.0 5.0 25 29
+ 1.26556 2 3 cbr 210 ------- 0 0.0 5.0 25 29
- 1.26556 2 3 cbr 210 ------- 0 0.0 5.0 25 29
+ 1.2664 3 6 cbr 210 ------- 0 0.0 5.0 19 21
- 1.2664 3 6 cbr 210 ------- 0 0.0 5.0 19 21
r 1.2664 2 3 cbr 210 ------- 0 0.0 5.0 23 25
h 1.2664 3 6 cbr 210 ------- 0 0.0 5.0 23 25
r 1.266404 6 5 cbr 210 ------- 0 0.0 5.0 15 17
d 1.266404 4 6 cbr 210 ------- 0 0.0 5.0 19 21
+ 1.27 0 2 cbr 210 ------- 0 0.0 5.0 27 31
- 1.27 0 2 cbr 210 ------- 0 0.0 5.0 27 31
r 1.275461 2 3 tcp 1040 ------- 0 1.0 5.1 1 26
h 1.275461 3 6 tcp 1040 ------- 0 1.0 5.1 1 26
r 1.27556 0 2 cbr 210 ------- 0 0.0 5.0 26 30
+ 1.27556 2 3 cbr 210 ------- 0 0.0 5.0 26 30
- 1.27556 2 3 cbr 210 ------- 0 0.0 5.0 26 30
+ 1.2764 3 6 cbr 210 ------- 0 0.0 5.0 20 22
- 1.2764 3 6 cbr 210 ------- 0 0.0 5.0 20 22
r 1.2764 2 3 cbr 210 ------- 0 0.0 5.0 24 28
h 1.2764 3 6 cbr 210 ------- 0 0.0 5.0 24 28
r 1.276404 6 5 cbr 210 ------- 0 0.0 5.0 16 18
d 1.276404 4 6 cbr 210 ------- 0 0.0 5.0 20 22
+ 1.28 0 2 cbr 210 ------- 0 0.0 5.0 28 32
- 1.28 0 2 cbr 210 ------- 0 0.0 5.0 28 32
r 1.281008 2 3 tcp 1040 ------- 0 1.0 5.1 2 27
h 1.281008 3 6 tcp 1040 ------- 0 1.0 5.1 2 27
r 1.28556 0 2 cbr 210 ------- 0 0.0 5.0 27 31
+ 1.28556 2 3 cbr 210 ------- 0 0.0 5.0 27 31
- 1.28556 2 3 cbr 210 ------- 0 0.0 5.0 27 31
+ 1.2864 3 6 cbr 210 ------- 0 0.0 5.0 21 23
- 1.2864 3 6 cbr 210 ------- 0 0.0 5.0 21 23
r 1.2864 2 3 cbr 210 ------- 0 0.0 5.0 25 29
h 1.2864 3 6 cbr 210 ------- 0 0.0 5.0 25 29
r 1.286404 6 5 cbr 210 ------- 0 0.0 5.0 17 19
d 1.286404 4 6 cbr 210 ------- 0 0.0 5.0 21 23
+ 1.29 0 2 cbr 210 ------- 0 0.0 5.0 29 33
- 1.29 0 2 cbr 210 ------- 0 0.0 5.0 29 33
r 1.29556 0 2 cbr 210 ------- 0 0.0 5.0 28 32
+ 1.29556 2 3 cbr 210 ------- 0 0.0 5.0 28 32
- 1.29556 2 3 cbr 210 ------- 0 0.0 5.0 28 32
+ 1.2964 3 6 cbr 210 ------- 0 0.0 5.0 22 24
- 1.2964 3 6 cbr 210 ------- 0 0.0 5.0 22 24
r 1.2964 2 3 cbr 210 ------- 0 0.0 5.0 26 30
h 1.2964 3 6 cbr 210 ------- 0 0.0 5.0 26 30
r 1.296404 6 5 cbr 210 ------- 0 0.0 5.0 18 20
d 1.296404 4 6 cbr 210 ------- 0 0.0 5.0 22 24
+ 1.3 0 2 cbr 210 ------- 0 0.0 5.0 30 34
- 1.3 0 2 cbr 210 ------- 0 0.0 5.0 30 34
r 1.30556 0 2 cbr 210 ------- 0 0.0 5.0 29 33
+ 1.30556 2 3 cbr 210 ------- 0 0.0 5.0 29 33
- 1.30556 2 3 cbr 210 ------- 0 0.0 5.0 29 33
+ 1.3064 3 6 cbr 210 ------- 0 0.0 5.0 23 25
- 1.3064 3 6 cbr 210 ------- 0 0.0 5.0 23 25
r 1.3064 2 3 cbr 210 ------- 0 0.0 5.0 27 31
h 1.3064 3 6 cbr 210 ------- 0 0.0 5.0 27 31
r 1.306404 6 5 cbr 210 ------- 0 0.0 5.0 19 21
d 1.306404 4 6 cbr 210 ------- 0 0.0 5.0 23 25
+ 1.31 0 2 cbr 210 ------- 0 0.0 5.0 31 35
- 1.31 0 2 cbr 210 ------- 0 0.0 5.0 31 35
+ 1.315461 3 6 tcp 1040 ------- 0 1.0 5.1 1 26
- 1.315461 3 6 tcp 1040 ------- 0 1.0 5.1 1 26
d 1.315465 4 6 tcp 1040 ------- 0 1.0 5.1 1 26
r 1.31556 0 2 cbr 210 ------- 0 0.0 5.0 30 34
+ 1.31556 2 3 cbr 210 ------- 0 0.0 5.0 30 34
- 1.31556 2 3 cbr 210 ------- 0 0.0 5.0 30 34
+ 1.3164 3 6 cbr 210 ------- 0 0.0 5.0 24 28
r 1.3164 2 3 cbr 210 ------- 0 0.0 5.0 28 32
h 1.3164 3 6 cbr 210 ------- 0 0.0 5.0 28 32
r 1.316404 6 5 cbr 210 ------- 0 0.0 5.0 20 22
- 1.319877 3 6 cbr 210 ------- 0 0.0 5.0 24 28
d 1.319881 4 6 cbr 210 ------- 0 0.0 5.0 24 28
+ 1.32 0 2 cbr 210 ------- 0 0.0 5.0 32 36
- 1.32 0 2 cbr 210 ------- 0 0.0 5.0 32 36
+ 1.321008 3 6 tcp 1040 ------- 0 1.0 5.1 2 27
- 1.321008 3 6 tcp 1040 ------- 0 1.0 5.1 2 27
d 1.321012 4 6 tcp 1040 ------- 0 1.0 5.1 2 27
r 1.32556 0 2 cbr 210 ------- 0 0.0 5.0 31 35
+ 1.32556 2 3 cbr 210 ------- 0 0.0 5.0 31 35
- 1.32556 2 3 cbr 210 ------- 0 0.0 5.0 31 35
+ 1.3264 3 6 cbr 210 ------- 0 0.0 5.0 25 29
- 1.3264 3 6 cbr 210 ------- 0 0.0 5.0 25 29
r 1.3264 2 3 cbr 210 ------- 0 0.0 5.0 29 33
h 1.3264 3 6 cbr 210 ------- 0 0.0 5.0 29 33
r 1.326404 6 5 cbr 210 ------- 0 0.0 5.0 21 23
d 1.326404 4 6 cbr 210 ------- 0 0.0 5.0 25 29
+ 1.33 0 2 cbr 210 ------- 0 0.0 5.0 33 37
- 1.33 0 2 cbr 210 ------- 0 0.0 5.0 33 37
r 1.33556 0 2 cbr 210 ------- 0 0.0 5.0 32 36
+ 1.33556 2 3 cbr 210 ------- 0 0.0 5.0 32 36
- 1.33556 2 3 cbr 210 ------- 0 0.0 5.0 32 36
+ 1.3364 3 6 cbr 210 ------- 0 0.0 5.0 26 30
- 1.3364 3 6 cbr 210 ------- 0 0.0 5.0 26 30
r 1.3364 2 3 cbr 210 ------- 0 0.0 5.0 30 34
h 1.3364 3 6 cbr 210 ------- 0 0.0 5.0 30 34
r 1.336404 6 5 cbr 210 ------- 0 0.0 5.0 22 24
d 1.336404 4 6 cbr 210 ------- 0 0.0 5.0 26 30
+ 1.34 0 2 cbr 210 ------- 0 0.0 5.0 34 38
- 1.34 0 2 cbr 210 ------- 0 0.0 5.0 34 38
r 1.34556 0 2 cbr 210 ------- 0 0.0 5.0 33 37
+ 1.34556 2 3 cbr 210 ------- 0 0.0 5.0 33 37
- 1.34556 2 3 cbr 210 ------- 0 0.0 5.0 33 37
+ 1.3464 3 6 cbr 210 ------- 0 0.0 5.0 27 31
- 1.3464 3 6 cbr 210 ------- 0 0.0 5.0 27 31
r 1.3464 2 3 cbr 210 ------- 0 0.0 5.0 31 35
h 1.3464 3 6 cbr 210 ------- 0 0.0 5.0 31 35
r 1.346404 6 5 cbr 210 ------- 0 0.0 5.0 23 25
d 1.346404 4 6 cbr 210 ------- 0 0.0 5.0 27 31
+ 1.35 0 2 cbr 210 ------- 0 0.0 5.0 35 39
- 1.35 0 2 cbr 210 ------- 0 0.0 5.0 35 39
r 1.355465 6 5 tcp 1040 ------- 0 1.0 5.1 1 26
h 1.355465 5 6 ack 40 ------- 0 5.1 1.0 1 40
r 1.35556 0 2 cbr 210 ------- 0 0.0 5.0 34 38
+ 1.35556 2 3 cbr 210 ------- 0 0.0 5.0 34 38
- 1.35556 2 3 cbr 210 ------- 0 0.0 5.0 34 38
+ 1.3564 3 6 cbr 210 ------- 0 0.0 5.0 28 32
- 1.3564 3 6 cbr 210 ------- 0 0.0 5.0 28 32
r 1.3564 2 3 cbr 210 ------- 0 0.0 5.0 32 36
h 1.3564 3 6 cbr 210 ------- 0 0.0 5.0 32 36
d 1.356404 4 6 cbr 210 ------- 0 0.0 5.0 28 32
r 1.359881 6 5 cbr 210 ------- 0 0.0 5.0 24 28
+ 1.36 0 2 cbr 210 ------- 0 0.0 5.0 36 41
- 1.36 0 2 cbr 210 ------- 0 0.0 5.0 36 41
r 1.361012 6 5 tcp 1040 ------- 0 1.0 5.1 2 27
h 1.361012 5 6 ack 40 ------- 0 5.1 1.0 2 42
r 1.36556 0 2 cbr 210 ------- 0 0.0 5.0 35 39
+ 1.36556 2 3 cbr 210 ------- 0 0.0 5.0 35 39
- 1.36556 2 3 cbr 210 ------- 0 0.0 5.0 35 39
+ 1.3664 3 6 cbr 210 ------- 0 0.0 5.0 29 33
- 1.3664 3 6 cbr 210 ------- 0 0.0 5.0 29 33
r 1.3664 2 3 cbr 210 ------- 0 0.0 5.0 33 37
h 1.3664 3 6 cbr 210 ------- 0 0.0 5.0 33 37
r 1.366404 6 5 cbr 210 ------- 0 0.0 5.0 25 29
d 1.366404 4 6 cbr 210 ------- 0 0.0 5.0 29 33
+ 1.37 0 2 cbr 210 ------- 0 0.0 5.0 37 43
- 1.37 0 2 cbr 210 ------- 0 0.0 5.0 37 43
r 1.37556 0 2 cbr 210 ------- 0 0.0 5.0 36 41
+ 1.37556 2 3 cbr 210 ------- 0 0.0 5.0 36 41
- 1.37556 2 3 cbr 210 ------- 0 0.0 5.0 36 41
+ 1.3764 3 6 cbr 210 ------- 0 0.0 5.0 30 34
- 1.3764 3 6 cbr 210 ------- 0 0.0 5.0 30 34
r 1.3764 2 3 cbr 210 ------- 0 0.0 5.0 34 38
h 1.3764 3 6 cbr 210 ------- 0 0.0 5.0 34 38
r 1.376404 6 5 cbr 210 ------- 0 0.0 5.0 26 30
d 1.376404 4 6 cbr 210 ------- 0 0.0 5.0 30 34
+ 1.38 0 2 cbr 210 ------- 0 0.0 5.0 38 44
- 1.38 0 2 cbr 210 ------- 0 0.0 5.0 38 44
r 1.38556 0 2 cbr 210 ------- 0 0.0 5.0 37 43
+ 1.38556 2 3 cbr 210 ------- 0 0.0 5.0 37 43
- 1.38556 2 3 cbr 210 ------- 0 0.0 5.0 37 43
+ 1.3864 3 6 cbr 210 ------- 0 0.0 5.0 31 35
- 1.3864 3 6 cbr 210 ------- 0 0.0 5.0 31 35
r 1.3864 2 3 cbr 210 ------- 0 0.0 5.0 35 39
h 1.3864 3 6 cbr 210 ------- 0 0.0 5.0 35 39
r 1.386404 6 5 cbr 210 ------- 0 0.0 5.0 27 31
d 1.386404 4 6 cbr 210 ------- 0 0.0 5.0 31 35
+ 1.39 0 2 cbr 210 ------- 0 0.0 5.0 39 45
- 1.39 0 2 cbr 210 ------- 0 0.0 5.0 39 45
+ 1.395465 5 6 ack 40 ------- 0 5.1 1.0 1 40
- 1.395465 5 6 ack 40 ------- 0 5.1 1.0 1 40
d 1.395469 4 6 ack 40 ------- 0 5.1 1.0 1 40
r 1.39556 0 2 cbr 210 ------- 0 0.0 5.0 38 44
+ 1.39556 2 3 cbr 210 ------- 0 0.0 5.0 38 44
- 1.39556 2 3 cbr 210 ------- 0 0.0 5.0 38 44
+ 1.3964 3 6 cbr 210 ------- 0 0.0 5.0 32 36
- 1.3964 3 6 cbr 210 ------- 0 0.0 5.0 32 36
r 1.3964 2 3 cbr 210 ------- 0 0.0 5.0 36 41
h 1.3964 3 6 cbr 210 ------- 0 0.0 5.0 36 41
r 1.396404 6 5 cbr 210 ------- 0 0.0 5.0 28 32
d 1.396404 4 6 cbr 210 ------- 0 0.0 5.0 32 36
+ 1.4 0 2 cbr 210 ------- 0 0.0 5.0 40 46
- 1.4 0 2 cbr 210 ------- 0 0.0 5.0 40 46
+ 1.401012 5 6 ack 40 ------- 0 5.1 1.0 2 42
- 1.401012 5 6 ack 40 ------- 0 5.1 1.0 2 42
d 1.401016 4 6 ack 40 ------- 0 5.1 1.0 2 42
r 1.40556 0 2 cbr 210 ------- 0 0.0 5.0 39 45
+ 1.40556 2 3 cbr 210 ------- 0 0.0 5.0 39 45
- 1.40556 2 3 cbr 210 ------- 0 0.0 5.0 39 45
+ 1.4064 3 6 cbr 210 ------- 0 0.0 5.0 33 37
- 1.4064 3 6 cbr 210 ------- 0 0.0 5.0 33 37
r 1.4064 2 3 cbr 210 ------- 0 0.0 5.0 37 43
h 1.4064 3 6 cbr 210 ------- 0 0.0 5.0 37 43
r 1.406404 6 5 cbr 210 ------- 0 0.0 5.0 29 33
d 1.406404 4 6 cbr 210 ------- 0 0.0 5.0 33 37
+ 1.41 0 2 cbr 210 ------- 0 0.0 5.0 41 47
- 1.41 0 2 cbr 210 ------- 0 0.0 5.0 41 47
r 1.41556 0 2 cbr 210 ------- 0 0.0 5.0 40 46
+ 1.41556 2 3 cbr 210 ------- 0 0.0 5.0 40 46
- 1.41556 2 3 cbr 210 ------- 0 0.0 5.0 40 46
+ 1.4164 3 6 cbr 210 ------- 0 0.0 5.0 34 38
- 1.4164 3 6 cbr 210 ------- 0 0.0 5.0 34 38
r 1.4164 2 3 cbr 210 ------- 0 0.0 5.0 38 44
h 1.4164 3 6 cbr 210 ------- 0 0.0 5.0 38 44
r 1.416404 6 5 cbr 210 ------- 0 0.0 5.0 30 34
d 1.416404 4 6 cbr 210 ------- 0 0.0 5.0 34 38
+ 1.42 0 2 cbr 210 ------- 0 0.0 5.0 42 48
- 1.42 0 2 cbr 210 ------- 0 0.0 5.0 42 48
r 1.42556 0 2 cbr 210 ------- 0 0.0 5.0 41 47
+ 1.42556 2 3 cbr 210 ------- 0 0.0 5.0 41 47
- 1.42556 2 3 cbr 210 ------- 0 0.0 5.0 41 47
+ 1.4264 3 6 cbr 210 ------- 0 0.0 5.0 35 39
- 1.4264 3 6 cbr 210 ------- 0 0.0 5.0 35 39
r 1.4264 2 3 cbr 210 ------- 0 0.0 5.0 39 45
h 1.4264 3 6 cbr 210 ------- 0 0.0 5.0 39 45
r 1.426404 6 5 cbr 210 ------- 0 0.0 5.0 31 35
d 1.426404 4 6 cbr 210 ------- 0 0.0 5.0 35 39
+ 1.43 0 2 cbr 210 ------- 0 0.0 5.0 43 49
- 1.43 0 2 cbr 210 ------- 0 0.0 5.0 43 49
r 1.435469 6 3 ack 40 ------- 0 5.1 1.0 1 40
+ 1.435469 3 2 ack 40 ------- 0 5.1 1.0 1 40
- 1.435469 3 2 ack 40 ------- 0 5.1 1.0 1 40
r 1.43556 0 2 cbr 210 ------- 0 0.0 5.0 42 48
+ 1.43556 2 3 cbr 210 ------- 0 0.0 5.0 42 48
- 1.43556 2 3 cbr 210 ------- 0 0.0 5.0 42 48
+ 1.4364 3 6 cbr 210 ------- 0 0.0 5.0 36 41
- 1.4364 3 6 cbr 210 ------- 0 0.0 5.0 36 41
r 1.4364 2 3 cbr 210 ------- 0 0.0 5.0 40 46
h 1.4364 3 6 cbr 210 ------- 0 0.0 5.0 40 46
r 1.436404 6 5 cbr 210 ------- 0 0.0 5.0 32 36
d 1.436404 4 6 cbr 210 ------- 0 0.0 5.0 36 41
+ 1.44 0 2 cbr 210 ------- 0 0.0 5.0 44 50
- 1.44 0 2 cbr 210 ------- 0 0.0 5.0 44 50
r 1.441016 6 3 ack 40 ------- 0 5.1 1.0 2 42
+ 1.441016 3 2 ack 40 ------- 0 5.1 1.0 2 42
- 1.441016 3 2 ack 40 ------- 0 5.1 1.0 2 42
r 1.44556 0 2 cbr 210 ------- 0 0.0 5.0 43 49
+ 1.44556 2 3 cbr 210 ------- 0 0.0 5.0 43 49
- 1.44556 2 3 cbr 210 ------- 0 0.0 5.0 43 49
+ 1.4464 3 6 cbr 210 ------- 0 0.0 5.0 37 43
- 1.4464 3 6 cbr 210 ------- 0 0.0 5.0 37 43
r 1.4464 2 3 cbr 210 ------- 0 0.0 5.0 41 47
h 1.4464 3 6 cbr 210 ------- 0 0.0 5.0 41 47
r 1.446404 6 5 cbr 210 ------- 0 0.0 5.0 33 37
d 1.446404 4 6 cbr 210 ------- 0 0.0 5.0 37 43
+ 1.45 0 2 cbr 210 ------- 0 0.0 5.0 45 51
- 1.45 0 2 cbr 210 ------- 0 0.0 5.0 45 51
r 1.45556 0 2 cbr 210 ------- 0 0.0 5.0 44 50
+ 1.45556 2 3 cbr 210 ------- 0 0.0 5.0 44 50
- 1.45556 2 3 cbr 210 ------- 0 0.0 5.0 44 50
r 1.455629 3 2 ack 40 ------- 0 5.1 1.0 1 40
+ 1.455629 2 1 ack 40 ------- 0 5.1 1.0 1 40
- 1.455629 2 1 ack 40 ------- 0 5.1 1.0 1 40
+ 1.4564 3 6 cbr 210 ------- 0 0.0 5.0 38 44
- 1.4564 3 6 cbr 210 ------- 0 0.0 5.0 38 44
r 1.4564 2 3 cbr 210 ------- 0 0.0 5.0 42 48
h 1.4564 3 6 cbr 210 ------- 0 0.0 5.0 42 48
r 1.456404 6 5 cbr 210 ------- 0 0.0 5.0 34 38
d 1.456404 4 6 cbr 210 ------- 0 0.0 5.0 38 44
+ 1.46 0 2 cbr 210 ------- 0 0.0 5.0 46 52
- 1.46 0 2 cbr 210 ------- 0 0.0 5.0 46 52
r 1.461176 3 2 ack 40 ------- 0 5.1 1.0 2 42
+ 1.461176 2 1 ack 40 ------- 0 5.1 1.0 2 42
- 1.461176 2 1 ack 40 ------- 0 5.1 1.0 2 42
r 1.46556 0 2 cbr 210 ------- 0 0.0 5.0 45 51
+ 1.46556 2 3 cbr 210 ------- 0 0.0 5.0 45 51
- 1.46556 2 3 cbr 210 ------- 0 0.0 5.0 45 51
+ 1.4664 3 6 cbr 210 ------- 0 0.0 5.0 39 45
- 1.4664 3 6 cbr 210 ------- 0 0.0 5.0 39 45
r 1.4664 2 3 cbr 210 ------- 0 0.0 5.0 43 49
h 1.4664 3 6 cbr 210 ------- 0 0.0 5.0 43 49
r 1.466404 6 5 cbr 210 ------- 0 0.0 5.0 35 39
d 1.466404 4 6 cbr 210 ------- 0 0.0 5.0 39 45
+ 1.47 0 2 cbr 210 ------- 0 0.0 5.0 47 53
- 1.47 0 2 cbr 210 ------- 0 0.0 5.0 47 53
r 1.470843 2 1 ack 40 ------- 0 5.1 1.0 1 40
+ 1.470843 1 2 tcp 1040 ------- 0 1.0 5.1 3 54
- 1.470843 1 2 tcp 1040 ------- 0 1.0 5.1 3 54
+ 1.470843 1 2 tcp 1040 ------- 0 1.0 5.1 4 55
r 1.47556 0 2 cbr 210 ------- 0 0.0 5.0 46 52
+ 1.47556 2 3 cbr 210 ------- 0 0.0 5.0 46 52
- 1.47556 2 3 cbr 210 ------- 0 0.0 5.0 46 52
r 1.476389 2 1 ack 40 ------- 0 5.1 1.0 2 42
+ 1.476389 1 2 tcp 1040 ------- 0 1.0 5.1 5 56
+ 1.476389 1 2 tcp 1040 ------- 0 1.0 5.1 6 57
- 1.476389 1 2 tcp 1040 ------- 0 1.0 5.1 4 55
+ 1.4764 3 6 cbr 210 ------- 0 0.0 5.0 40 46
- 1.4764 3 6 cbr 210 ------- 0 0.0 5.0 40 46
r 1.4764 2 3 cbr 210 ------- 0 0.0 5.0 44 50
h 1.4764 3 6 cbr 210 ------- 0 0.0 5.0 44 50
r 1.476404 6 5 cbr 210 ------- 0 0.0 5.0 36 41
d 1.476404 4 6 cbr 210 ------- 0 0.0 5.0 40 46
+ 1.48 0 2 cbr 210 ------- 0 0.0 5.0 48 58
- 1.48 0 2 cbr 210 ------- 0 0.0 5.0 48 58
- 1.481936 1 2 tcp 1040 ------- 0 1.0 5.1 5 56
r 1.48556 0 2 cbr 210 ------- 0 0.0 5.0 47 53
+ 1.48556 2 3 cbr 210 ------- 0 0.0 5.0 47 53
- 1.48556 2 3 cbr 210 ------- 0 0.0 5.0 47 53
+ 1.4864 3 6 cbr 210 ------- 0 0.0 5.0 41 47
- 1.4864 3 6 cbr 210 ------- 0 0.0 5.0 41 47
r 1.4864 2 3 cbr 210 ------- 0 0.0 5.0 45 51
h 1.4864 3 6 cbr 210 ------- 0 0.0 5.0 45 51
r 1.486404 6 5 cbr 210 ------- 0 0.0 5.0 37 43
d 1.486404 4 6 cbr 210 ------- 0 0.0 5.0 41 47
- 1.487483 1 2 tcp 1040 ------- 0 1.0 5.1 6 57
+ 1.49 0 2 cbr 210 ------- 0 0.0 5.0 49 59
- 1.49 0 2 cbr 210 ------- 0 0.0 5.0 49 59
r 1.491389 1 2 tcp 1040 ------- 0 1.0 5.1 3 54
+ 1.491389 2 3 tcp 1040 ------- 0 1.0 5.1 3 54
- 1.491389 2 3 tcp 1040 ------- 0 1.0 5.1 3 54
r 1.49556 0 2 cbr 210 ------- 0 0.0 5.0 48 58
+ 1.49556 2 3 cbr 210 ------- 0 0.0 5.0 48 58
- 1.49556 2 3 cbr 210 ------- 0 0.0 5.0 48 58
+ 1.4964 3 6 cbr 210 ------- 0 0.0 5.0 42 48
- 1.4964 3 6 cbr 210 ------- 0 0.0 5.0 42 48
r 1.4964 2 3 cbr 210 ------- 0 0.0 5.0 46 52
h 1.4964 3 6 cbr 210 ------- 0 0.0 5.0 46 52
r 1.496404 6 5 cbr 210 ------- 0 0.0 5.0 38 44
d 1.496404 4 6 cbr 210 ------- 0 0.0 5.0 42 48
r 1.496936 1 2 tcp 1040 ------- 0 1.0 5.1 4 55
+ 1.496936 2 3 tcp 1040 ------- 0 1.0 5.1 4 55
- 1.496936 2 3 tcp 1040 ------- 0 1.0 5.1 4 55
+ 1.5 0 2 cbr 210 ------- 0 0.0 5.0 50 60
- 1.5 0 2 cbr 210 ------- 0 0.0 5.0 50 60
r 1.502483 1 2 tcp 1040 ------- 0 1.0 5.1 5 56
+ 1.502483 2 3 tcp 1040 ------- 0 1.0 5.1 5 56
- 1.502483 2 3 tcp 1040 ------- 0 1.0 5.1 5 56
r 1.50556 0 2 cbr 210 ------- 0 0.0 5.0 49 59
+ 1.50556 2 3 cbr 210 ------- 0 0.0 5.0 49 59
+ 1.5064 3 6 cbr 210 ------- 0 0.0 5.0 43 49
- 1.5064 3 6 cbr 210 ------- 0 0.0 5.0 43 49
r 1.5064 2 3 cbr 210 ------- 0 0.0 5.0 47 53
h 1.5064 3 6 cbr 210 ------- 0 0.0 5.0 47 53
r 1.506404 6 5 cbr 210 ------- 0 0.0 5.0 39 45
d 1.506404 4 6 cbr 210 ------- 0 0.0 5.0 43 49
- 1.506643 2 3 cbr 210 ------- 0 0.0 5.0 49 59
r 1.508029 1 2 tcp 1040 ------- 0 1.0 5.1 6 57
+ 1.508029 2 3 tcp 1040 ------- 0 1.0 5.1 6 57
- 1.508029 2 3 tcp 1040 ------- 0 1.0 5.1 6 57
+ 1.51 0 2 cbr 210 ------- 0 0.0 5.0 51 61
- 1.51 0 2 cbr 210 ------- 0 0.0 5.0 51 61
r 1.515549 2 3 tcp 1040 ------- 0 1.0 5.1 3 54
h 1.515549 3 6 tcp 1040 ------- 0 1.0 5.1 3 54
r 1.51556 0 2 cbr 210 ------- 0 0.0 5.0 50 60
+ 1.51556 2 3 cbr 210 ------- 0 0.0 5.0 50 60
- 1.51556 2 3 cbr 210 ------- 0 0.0 5.0 50 60
+ 1.5164 3 6 cbr 210 ------- 0 0.0 5.0 44 50
- 1.5164 3 6 cbr 210 ------- 0 0.0 5.0 44 50
r 1.5164 2 3 cbr 210 ------- 0 0.0 5.0 48 58
h 1.5164 3 6 cbr 210 ------- 0 0.0 5.0 48 58
r 1.516404 6 5 cbr 210 ------- 0 0.0 5.0 40 46
d 1.516404 4 6 cbr 210 ------- 0 0.0 5.0 44 50
+ 1.52 0 2 cbr 210 ------- 0 0.0 5.0 52 62
- 1.52 0 2 cbr 210 ------- 0 0.0 5.0 52 62
r 1.521096 2 3 tcp 1040 ------- 0 1.0 5.1 4 55
h 1.521096 3 6 tcp 1040 ------- 0 1.0 5.1 4 55
r 1.52556 0 2 cbr 210 ------- 0 0.0 5.0 51 61
+ 1.52556 2 3 cbr 210 ------- 0 0.0 5.0 51 61
- 1.52556 2 3 cbr 210 ------- 0 0.0 5.0 51 61
+ 1.5264 3 6 cbr 210 ------- 0 0.0 5.0 45 51
- 1.5264 3 6 cbr 210 ------- 0 0.0 5.0 45 51
r 1.526404 6 5 cbr 210 ------- 0 0.0 5.0 41 47
d 1.526404 4 6 cbr 210 ------- 0 0.0 5.0 45 51
r 1.526643 2 3 tcp 1040 ------- 0 1.0 5.1 5 56
h 1.526643 3 6 tcp 1040 ------- 0 1.0 5.1 5 56
r 1.527483 2 3 cbr 210 ------- 0 0.0 5.0 49 59
h 1.527483 3 6 cbr 210 ------- 0 0.0 5.0 49 59
+ 1.53 0 2 cbr 210 ------- 0 0.0 5.0 53 63
- 1.53 0 2 cbr 210 ------- 0 0.0 5.0 53 63
r 1.532189 2 3 tcp 1040 ------- 0 1.0 5.1 6 57
h 1.532189 3 6 tcp 1040 ------- 0 1.0 5.1 6 57
r 1.53556 0 2 cbr 210 ------- 0 0.0 5.0 52 62
+ 1.53556 2 3 cbr 210 ------- 0 0.0 5.0 52 62
- 1.53556 2 3 cbr 210 ------- 0 0.0 5.0 52 62
+ 1.5364 3 6 cbr 210 ------- 0 0.0 5.0 46 52
- 1.5364 3 6 cbr 210 ------- 0 0.0 5.0 46 52
r 1.5364 2 3 cbr 210 ------- 0 0.0 5.0 50 60
h 1.5364 3 6 cbr 210 ------- 0 0.0 5.0 50 60
r 1.536404 6 5 cbr 210 ------- 0 0.0 5.0 42 48
d 1.536404 4 6 cbr 210 ------- 0 0.0 5.0 46 52
+ 1.54 0 2 cbr 210 ------- 0 0.0 5.0 54 64
- 1.54 0 2 cbr 210 ------- 0 0.0 5.0 54 64
r 1.54556 0 2 cbr 210 ------- 0 0.0 5.0 53 63
+ 1.54556 2 3 cbr 210 ------- 0 0.0 5.0 53 63
- 1.54556 2 3 cbr 210 ------- 0 0.0 5.0 53 63
+ 1.5464 3 6 cbr 210 ------- 0 0.0 5.0 47 53
- 1.5464 3 6 cbr 210 ------- 0 0.0 5.0 47 53
r 1.5464 2 3 cbr 210 ------- 0 0.0 5.0 51 61
h 1.5464 3 6 cbr 210 ------- 0 0.0 5.0 51 61
r 1.546404 6 5 cbr 210 ------- 0 0.0 5.0 43 49
d 1.546404 4 6 cbr 210 ------- 0 0.0 5.0 47 53
+ 1.55 0 2 cbr 210 ------- 0 0.0 5.0 55 65
- 1.55 0 2 cbr 210 ------- 0 0.0 5.0 55 65
+ 1.555549 3 6 tcp 1040 ------- 0 1.0 5.1 3 54
- 1.555549 3 6 tcp 1040 ------- 0 1.0 5.1 3 54
d 1.555553 4 6 tcp 1040 ------- 0 1.0 5.1 3 54
r 1.55556 0 2 cbr 210 ------- 0 0.0 5.0 54 64
+ 1.55556 2 3 cbr 210 ------- 0 0.0 5.0 54 64
- 1.55556 2 3 cbr 210 ------- 0 0.0 5.0 54 64