V -t * -v 1.0a5 -a 0
A -t * -n 1 -p 0 -o 0x7fffffff -c 30 -a 1
A -t * -h 1 -m 1073741823 -s 0
n -t * -a 4 -s 4 -S UP -v circle -c black -i black
n -t * -a 0 -s 0 -S UP -v circle -c black -i black
n -t * -a 5 -s 5 -S UP -v circle -c black -i black
n -t * -a 1 -s 1 -S UP -v circle -c black -i black
n -t * -a 2 -s 2 -S UP -v circle -c black -i black
n -t * -a 3 -s 3 -S UP -v circle -c black -i black
l -t * -s 2 -d 1 -S UP -r 1500000 -D 0.014999999999999999 -c black -o left-up
l -t * -s 2 -d 3 -S UP -r 2000000 -D 0.02 -c black -o right
l -t * -s 2 -d 0 -S UP -r 3000000 -D 0.014999999999999999 -c black -o left-down
X -t * -n 6 -r 0.5Mb -D 40ms -o left
L -t * -s 6 -d 3 -o up
L -t * -s 6 -d 5 -o down
L -t * -s 6 -d 4 -o up
+ -t 1 -s 0 -d 2 -p cbr -e 210 -c 0 -i 0 -a 0 -x {0.0 5.0 0 ------- null}
- -t 1 -s 0 -d 2 -p cbr -e 210 -c 0 -i 0 -a 0 -x {0.0 5.0 0 ------- null}
h -t 1 -s 0 -d 2 -p cbr -e 210 -c 0 -i 0 -a 0 -x {0.0 5.0 -1 ------- null}
+ -t 1 -s 1 -d 2 -p tcp -e 40 -c 0 -i 1 -a 0 -x {1.0 5.1 0 ------- null}
- -t 1 -s 1 -d 2 -p tcp -e 40 -c 0 -i 1 -a 0 -x {1.0 5.1 0 ------- null}
h -t 1 -s 1 -d 2 -p tcp -e 40 -c 0 -i 1 -a 0 -x {1.0 5.1 -1 ------- null}
+ -t 1.01 -s 0 -d 2 -p cbr -e 210 -c 0 -i 2 -a 0 -x {0.0 5.0 1 ------- null}
- -t 1.01 -s 0 -d 2 -p cbr -e 210 -c 0 -i 2 -a 0 -x {0.0 5.0 1 ------- null}
h -t 1.01 -s 0 -d 2 -p cbr -e 210 -c 0 -i 2 -a 0 -x {0.0 5.0 -1 ------- null}
r -t 1.01521333333333 -s 1 -d 2 -p tcp -e 40 -c 0 -i 1 -a 0 -x {1.0 5.1 0 ------- null}
+ -t 1.01521333333333 -s 2 -d 3 -p tcp -e 40 -c 0 -i 1 -a 0 -x {1.0 5.1 0 ------- null}
- -t 1.01521333333333 -s 2 -d 3 -p tcp -e 40 -c 0 -i 1 -a 0 -x {1.0 5.1 0 ------- null}
h -t 1.01521333333333 -s 2 -d 3 -p tcp -e 40 -c 0 -i 1 -a 0 -x {1.0 5.1 -1 ------- null}
r -t 1.01556 -s 0 -d 2 -p cbr -e 210 -c 0 -i 0 -a 0 -x {0.0 5.0 0 ------- null}
+ -t 1.01556 -s 2 -d 3 -p cbr -e 210 -c 0 -i 0 -a 0 -x {0.0 5.0 0 ------- null}
- -t 1.01556 -s 2 -d 3 -p cbr -e 210 -c 0 -i 0 -a 0 -x {0.0 5.0 0 ------- null}
h -t 1.01556 -s 2 -d 3 -p cbr -e 210 -c 0 -i 0 -a 0 -x {0.0 5.0 -1 ------- null}
+ -t 1.02 -s 0 -d 2 -p cbr -e 210 -c 0 -i 3 -a 0 -x {0.0 5.0 2 ------- null}
- -t 1.02 -s 0 -d 2 -p cbr -e 210 -c 0 -i 3 -a 0 -x {0.0 5.0 2 ------- null}
h -t 1.02 -s 0 -d 2 -p cbr -e 210 -c 0 -i 3 -a 0 -x {0.0 5.0 -1 ------- null}
r -t 1.02556 -s 0 -d 2 -p cbr -e 210 -c 0 -i 2 -a 0 -x {0.0 5.0 1 ------- null}
+ -t 1.02556 -s 2 -d 3 -p cbr -e 210 -c 0 -i 2 -a 0 -x {0.0 5.0 1 ------- null}
- -t 1.02556 -s 2 -d 3 -p cbr -e 210 -c 0 -i 2 -a 0 -x {0.0 5.0 1 ------- null}
h -t 1.02556 -s 2 -d 3 -p cbr -e 210 -c 0 -i 2 -a 0 -x {0.0 5.0 -1 ------- null}
+ -t 1.03 -s 0 -d 2 -p cbr -e 210 -c 0 -i 4 -a 0 -x {0.0 5.0 3 ------- null}
- -t 1.03 -s 0 -d 2 -p cbr -e 210 -c 0 -i 4 -a 0 -x {0.0 5.0 3 ------- null}
h -t 1.03 -s 0 -d 2 -p cbr -e 210 -c 0 -i 4 -a 0 -x {0.0 5.0 -1 ------- null}
r -t 1.03537333333333 -s 2 -d 3 -p tcp -e 40 -c 0 -i 1 -a 0 -x {1.0 5.1 0 ------- null}
h -t 1.03537333333333 -s 3 -d 6 -p tcp -e 40 -c 0 -i 1 -a 0 -x {1.0 5.1 0 ------- null}
r -t 1.03556 -s 0 -d 2 -p cbr -e 210 -c 0 -i 3 -a 0 -x {0.0 5.0 2 ------- null}
+ -t 1.03556 -s 2 -d 3 -p cbr -e 210 -c 0 -i 3 -a 0 -x {0.0 5.0 2 ------- null}
- -t 1.03556 -s 2 -d 3 -p cbr -e 210 -c 0 -i 3 -a 0 -x {0.0 5.0 2 ------- null}
h -t 1.03556 -s 2 -d 3 -p cbr -e 210 -c 0 -i 3 -a 0 -x {0.0 5.0 -1 ------- null}
r -t 1.0364 -s 2 -d 3 -p cbr -e 210 -c 0 -i 0 -a 0 -x {0.0 5.0 0 ------- null}
h -t 1.0364 -s 3 -d 6 -p cbr -e 210 -c 0 -i 0 -a 0 -x {0.0 5.0 0 ------- null}
+ -t 1.04 -s 0 -d 2 -p cbr -e 210 -c 0 -i 5 -a 0 -x {0.0 5.0 4 ------- null}
- -t 1.04 -s 0 -d 2 -p cbr -e 210 -c 0 -i 5 -a 0 -x {0.0 5.0 4 ------- null}
h -t 1.04 -s 0 -d 2 -p cbr -e 210 -c 0 -i 5 -a 0 -x {0.0 5.0 -1 ------- null}
r -t 1.04556 -s 0 -d 2 -p cbr -e 210 -c 0 -i 4 -a 0 -x {0.0 5.0 3 ------- null}
+ -t 1.04556 -s 2 -d 3 -p cbr -e 210 -c 0 -i 4 -a 0 -x {0.0 5.0 3 ------- null}
- -t 1.04556 -s 2 -d 3 -p cbr -e 210 -c 0 -i 4 -a 0 -x {0.0 5.0 3 ------- null}
h -t 1.04556 -s 2 -d 3 -p cbr -e 210 -c 0 -i 4 -a 0 -x {0.0 5.0 -1 ------- null}
r -t 1.0464 -s 2 -d 3 -p cbr -e 210 -c 0 -i 2 -a 0 -x {0.0 5.0 1 ------- null}
h -t 1.0464 -s 3 -d 6 -p cbr -e 210 -c 0 -i 2 -a 0 -x {0.0 5.0 1 ------- null}
+ -t 1.05 -s 0 -d 2 -p cbr -e 210 -c 0 -i 6 -a 0 -x {0.0 5.0 5 ------- null}
- -t 1.05 -s 0 -d 2 -p cbr -e 210 -c 0 -i 6 -a 0 -x {0.0 5.0 5 ------- null}
h -t 1.05 -s 0 -d 2 -p cbr -e 210 -c 0 -i 6 -a 0 -x {0.0 5.0 -1 ------- null}
r -t 1.05556 -s 0 -d 2 -p cbr -e 210 -c 0 -i 5 -a 0 -x {0.0 5.0 4 ------- null}
+ -t 1.05556 -s 2 -d 3 -p cbr -e 210 -c 0 -i 5 -a 0 -x {0.0 5.0 4 ------- null}
- -t 1.05556 -s 2 -d 3 -p cbr -e 210 -c 0 -i 5 -a 0 -x {0.0 5.0 4 ------- null}
h -t 1.05556 -s 2 -d 3 -p cbr -e 210 -c 0 -i 5 -a 0 -x {0.0 5.0 -1 ------- null}
r -t 1.0564 -s 2 -d 3 -p cbr -e 210 -c 0 -i 3 -a 0 -x {0.0 5.0 2 ------- null}
h -t 1.0564 -s 3 -d 6 -p cbr -e 210 -c 0 -i 3 -a 0 -x {0.0 5.0 2 ------- null}
+ -t 1.06 -s 0 -d 2 -p cbr -e 210 -c 0 -i 7 -a 0 -x {0.0 5.0 6 ------- null}
- -t 1.06 -s 0 -d 2 -p cbr -e 210 -c 0 -i 7 -a 0 -x {0.0 5.0 6 ------- null}
h -t 1.06 -s 0 -d 2 -p cbr -e 210 -c 0 -i 7 -a 0 -x {0.0 5.0 -1 ------- null}
r -t 1.06556 -s 0 -d 2 -p cbr -e 210 -c 0 -i 6 -a 0 -x {0.0 5.0 5 ------- null}
+ -t 1.06556 -s 2 -d 3 -p cbr -e 210 -c 0 -i 6 -a 0 -x {0.0 5.0 5 ------- null}
- -t 1.06556 -s 2 -d 3 -p cbr -e 210 -c 0 -i 6 -a 0 -x {0.0 5.0 5 ------- null}
h -t 1.06556 -s 2 -d 3 -p cbr -e 210 -c 0 -i 6 -a 0 -x {0.0 5.0 -1 ------- null}
r -t 1.0664 -s 2 -d 3 -p cbr -e 210 -c 0 -i 4 -a 0 -x {0.0 5.0 3 ------- null}
h -t 1.0664 -s 3 -d 6 -p cbr -e 210 -c 0 -i 4 -a 0 -x {0.0 5.0 3 ------- null}
+ -t 1.07 -s 0 -d 2 -p cbr -e 210 -c 0 -i 8 -a 0 -x {0.0 5.0 7 ------- null}
- -t 1.07 -s 0 -d 2 -p cbr -e 210 -c 0 -i 8 -a 0 -x {0.0 5.0 7 ------- null}
h -t 1.07 -s 0 -d 2 -p cbr -e 210 -c 0 -i 8 -a 0 -x {0.0 5.0 -1 ------- null}
+ -t 1.07537333333333 -s 3 -d 6 -p tcp -e 40 -c 0 -i 1 -a 0 -x {1.0 5.1 0 ------- null}
- -t 1.07537333333333 -s 3 -d 6 -p tcp -e 40 -c 0 -i 1 -a 0 -x {1.0 5.1 0 ------- null}
h -t 1.07537333333333 -s 3 -d 6 -p tcp -e 40 -c 0 -i 1 -a 0 -x {1.0 5.1 -1 ------- null}
d -t 1.07537733333333 -s 4 -d 6 -p tcp -e 40 -c 0 -i 1 -a 0 -x {1.0 5.1 0 ------- null}
r -t 1.07556 -s 0 -d 2 -p cbr -e 210 -c 0 -i 7 -a 0 -x {0.0 5.0 6 ------- null}
+ -t 1.07556 -s 2 -d 3 -p cbr -e 210 -c 0 -i 7 -a 0 -x {0.0 5.0 6 ------- null}
- -t 1.07556 -s 2 -d 3 -p cbr -e 210 -c 0 -i 7 -a 0 -x {0.0 5.0 6 ------- null}
h -t 1.07556 -s 2 -d 3 -p cbr -e 210 -c 0 -i 7 -a 0 -x {0.0 5.0 -1 ------- null}
+ -t 1.0764 -s 3 -d 6 -p cbr -e 210 -c 0 -i 0 -a 0 -x {0.0 5.0 0 ------- null}
- -t 1.0764 -s 3 -d 6 -p cbr -e 210 -c 0 -i 0 -a 0 -x {0.0 5.0 0 ------- null}
h -t 1.0764 -s 3 -d 6 -p cbr -e 210 -c 0 -i 0 -a 0 -x {0.0 5.0 -1 ------- null}
r -t 1.0764 -s 2 -d 3 -p cbr -e 210 -c 0 -i 5 -a 0 -x {0.0 5.0 4 ------- null}
h -t 1.0764 -s 3 -d 6 -p cbr -e 210 -c 0 -i 5 -a 0 -x {0.0 5.0 4 ------- null}
d -t 1.076404 -s 4 -d 6 -p cbr -e 210 -c 0 -i 0 -a 0 -x {0.0 5.0 0 ------- null}
+ -t 1.08 -s 0 -d 2 -p cbr -e 210 -c 0 -i 9 -a 0 -x {0.0 5.0 8 ------- null}
- -t 1.08 -s 0 -d 2 -p cbr -e 210 -c 0 -i 9 -a 0 -x {0.0 5.0 8 ------- null}
h -t 1.08 -s 0 -d 2 -p cbr -e 210 -c 0 -i 9 -a 0 -x {0.0 5.0 -1 ------- null}
r -t 1.08556 -s 0 -d 2 -p cbr -e 210 -c 0 -i 8 -a 0 -x {0.0 5.0 7 ------- null}
+ -t 1.08556 -s 2 -d 3 -p cbr -e 210 -c 0 -i 8 -a 0 -x {0.0 5.0 7 ------- null}
- -t 1.08556 -s 2 -d 3 -p cbr -e 210 -c 0 -i 8 -a 0 -x {0.0 5.0 7 ------- null}
h -t 1.08556 -s 2 -d 3 -p cbr -e 210 -c 0 -i 8 -a 0 -x {0.0 5.0 -1 ------- null}
+ -t 1.0864 -s 3 -d 6 -p cbr -e 210 -c 0 -i 2 -a 0 -x {0.0 5.0 1 ------- null}
- -t 1.0864 -s 3 -d 6 -p cbr -e 210 -c 0 -i 2 -a 0 -x {0.0 5.0 1 ------- null}
h -t 1.0864 -s 3 -d 6 -p cbr -e 210 -c 0 -i 2 -a 0 -x {0.0 5.0 -1 ------- null}
r -t 1.0864 -s 2 -d 3 -p cbr -e 210 -c 0 -i 6 -a 0 -x {0.0 5.0 5 ------- null}
h -t 1.0864 -s 3 -d 6 -p cbr -e 210 -c 0 -i 6 -a 0 -x {0.0 5.0 5 ------- null}
d -t 1.086404 -s 4 -d 6 -p cbr -e 210 -c 0 -i 2 -a 0 -x {0.0 5.0 1 ------- null}
+ -t 1.09 -s 0 -d 2 -p cbr -e 210 -c 0 -i 10 -a 0 -x {0.0 5.0 9 ------- null}
- -t 1.09 -s 0 -d 2 -p cbr -e 210 -c 0 -i 10 -a 0 -x {0.0 5.0 9 ------- null}
h -t 1.09 -s 0 -d 2 -p cbr -e 210 -c 0 -i 10 -a 0 -x {0.0 5.0 -1 ------- null}
r -t 1.09556 -s 0 -d 2 -p cbr -e 210 -c 0 -i 9 -a 0 -x {0.0 5.0 8 ------- null}
+ -t 1.09556 -s 2 -d 3 -p cbr -e 210 -c 0 -i 9 -a 0 -x {0.0 5.0 8 ------- null}
- -t 1.09556 -s 2 -d 3 -p cbr -e 210 -c 0 -i 9 -a 0 -x {0.0 5.0 8 ------- null}
h -t 1.09556 -s 2 -d 3 -p cbr -e 210 -c 0 -i 9 -a 0 -x {0.0 5.0 -1 ------- null}
+ -t 1.0964 -s 3 -d 6 -p cbr -e 210 -c 0 -i 3 -a 0 -x {0.0 5.0 2 ------- null}
- -t 1.0964 -s 3 -d 6 -p cbr -e 210 -c 0 -i 3 -a 0 -x {0.0 5.0 2 ------- null}
h -t 1.0964 -s 3 -d 6 -p cbr -e 210 -c 0 -i 3 -a 0 -x {0.0 5.0 -1 ------- null}
r -t 1.0964 -s 2 -d 3 -p cbr -e 210 -c 0 -i 7 -a 0 -x {0.0 5.0 6 ------- null}
h -t 1.0964 -s 3 -d 6 -p cbr -e 210 -c 0 -i 7 -a 0 -x {0.0 5.0 6 ------- null}
d -t 1.096404 -s 4 -d 6 -p cbr -e 210 -c 0 -i 3 -a 0 -x {0.0 5.0 2 ------- null}
+ -t 1.1 -s 0 -d 2 -p cbr -e 210 -c 0 -i 11 -a 0 -x {0.0 5.0 10 ------- null}
- -t 1.1 -s 0 -d 2 -p cbr -e 210 -c 0 -i 11 -a 0 -x {0.0 5.0 10 ------- null}
h -t 1.1 -s 0 -d 2 -p cbr -e 210 -c 0 -i 11 -a 0 -x {0.0 5.0 -1 ------- null}
r -t 1.10556 -s 0 -d 2 -p cbr -e 210 -c 0 -i 10 -a 0 -x {0.0 5.0 9 ------- null}
+ -t 1.10556 -s 2 -d 3 -p cbr -e 210 -c 0 -i 10 -a 0 -x {0.0 5.0 9 ------- null}
- -t 1.10556 -s 2 -d 3 -p cbr -e 210 -c 0 -i 10 -a 0 -x {0.0 5.0 9 ------- null}
h -t 1.10556 -s 2 -d 3 -p cbr -e 210 -c 0 -i 10 -a 0 -x {0.0 5.0 -1 ------- null}
+ -t 1.1064 -s 3 -d 6 -p cbr -e 210 -c 0 -i 4 -a 0 -x {0.0 5.0 3 ------- null}
- -t 1.1064 -s 3 -d 6 -p cbr -e 210 -c 0 -i 4 -a 0 -x {0.0 5.0 3 ------- null}
h -t 1.1064 -s 3 -d 6 -p cbr -e 210 -c 0 -i 4 -a 0 -x {0.0 5.0 -1 ------- null}
r -t 1.1064 -s 2 -d 3 -p cbr -e 210 -c 0 -i 8 -a 0 -x {0.0 5.0 7 ------- null}
h -t 1.1064 -s 3 -d 6 -p cbr -e 210 -c 0 -i 8 -a 0 -x {0.0 5.0 7 ------- null}
d -t 1.106404 -s 4 -d 6 -p cbr -e 210 -c 0 -i 4 -a 0 -x {0.0 5.0 3 ------- null}
+ -t 1.11 -s 0 -d 2 -p cbr -e 210 -c 0 -i 12 -a 0 -x {0.0 5.0 11 ------- null}
- -t 1.11 -s 0 -d 2 -p cbr -e 210 -c 0 -i 12 -a 0 -x {0.0 5.0 11 ------- null}
h -t 1.11 -s 0 -d 2 -p cbr -e 210 -c 0 -i 12 -a 0 -x {0.0 5.0 -1 ------- null}
r -t 1.11537733333333 -s 6 -d 5 -p tcp -e 40 -c 0 -i 1 -a 0 -x {1.0 5.1 0 ------- null}
h -t 1.11537733333333 -s 5 -d 6 -p ack -e 40 -c 0 -i 13 -a 0 -x {5.1 1.0 0 ------- null}
r -t 1.11556 -s 0 -d 2 -p cbr -e 210 -c 0 -i 11 -a 0 -x {0.0 5.0 10 ------- null}
+ -t 1.11556 -s 2 -d 3 -p cbr -e 210 -c 0 -i 11 -a 0 -x {0.0 5.0 10 ------- null}
- -t 1.11556 -s 2 -d 3 -p cbr -e 210 -c 0 -i 11 -a 0 -x {0.0 5.0 10 ------- null}
h -t 1.11556 -s 2 -d 3 -p cbr -e 210 -c 0 -i 11 -a 0 -x {0.0 5.0 -1 ------- null}
+ -t 1.1164 -s 3 -d 6 -p cbr -e 210 -c 0 -i 5 -a 0 -x {0.0 5.0 4 ------- null}
- -t 1.1164 -s 3 -d 6 -p cbr -e 210 -c 0 -i 5 -a 0 -x {0.0 5.0 4 ------- null}
h -t 1.1164 -s 3 -d 6 -p cbr -e 210 -c 0 -i 5 -a 0 -x {0.0 5.0 -1 ------- null}
r -t 1.1164 -s 2 -d 3 -p cbr -e 210 -c 0 -i 9 -a 0 -x {0.0 5.0 8 ------- null}
h -t 1.1164 -s 3 -d 6 -p cbr -e 210 -c 0 -i 9 -a 0 -x {0.0 5.0 8 ------- null}
r -t 1.116404 -s 6 -d 5 -p cbr -e 210 -c 0 -i 0 -a 0 -x {0.0 5.0 0 ------- null}
d -t 1.116404 -s 4 -d 6 -p cbr -e 210 -c 0 -i 5 -a 0 -x {0.0 5.0 4 ------- null}
+ -t 1.12 -s 0 -d 2 -p cbr -e 210 -c 0 -i 14 -a 0 -x {0.0 5.0 12 ------- null}
- -t 1.12 -s 0 -d 2 -p cbr -e 210 -c 0 -i 14 -a 0 -x {0.0 5.0 12 ------- null}
h -t 1.12 -s 0 -d 2 -p cbr -e 210 -c 0 -i 14 -a 0 -x {0.0 5.0 -1 ------- null}
r -t 1.12556 -s 0 -d 2 -p cbr -e 210 -c 0 -i 12 -a 0 -x {0.0 5.0 11 ------- null}
+ -t 1.12556 -s 2 -d 3 -p cbr -e 210 -c 0 -i 12 -a 0 -x {0.0 5.0 11 ------- null}
- -t 1.12556 -s 2 -d 3 -p cbr -e 210 -c 0 -i 12 -a 0 -x {0.0 5.0 11 ------- null}
h -t 1.12556 -s 2 -d 3 -p cbr -e 210 -c 0 -i 12 -a 0 -x {0.0 5.0 -1 ------- null}
+ -t 1.1264 -s 3 -d 6 -p cbr -e 210 -c 0 -i 6 -a 0 -x {0.0 5.0 5 ------- null}
- -t 1.1264 -s 3 -d 6 -p cbr -e 210 -c 0 -i 6 -a 0 -x {0.0 5.0 5 ------- null}
h -t 1.1264 -s 3 -d 6 -p cbr -e 210 -c 0 -i 6 -a 0 -x {0.0 5.0 -1 ------- null}
r -t 1.1264 -s 2 -d 3 -p cbr -e 210 -c 0 -i 10 -a 0 -x {0.0 5.0 9 ------- null}
h -t 1.1264 -s 3 -d 6 -p cbr -e 210 -c 0 -i 10 -a 0 -x {0.0 5.0 9 ------- null}
r -t 1.126404 -s 6 -d 5 -p cbr -e 210 -c 0 -i 2 -a 0 -x {0.0 5.0 1 ------- null}
d -t 1.126404 -s 4 -d 6 -p cbr -e 210 -c 0 -i 6 -a 0 -x {0.0 5.0 5 ------- null}
+ -t 1.13 -s 0 -d 2 -p cbr -e 210 -c 0 -i 15 -a 0 -x {0.0 5.0 13 ------- null}
- -t 1.13 -s 0 -d 2 -p cbr -e 210 -c 0 -i 15 -a 0 -x {0.0 5.0 13 ------- null}
h -t 1.13 -s 0 -d 2 -p cbr -e 210 -c 0 -i 15 -a 0 -x {0.0 5.0 -1 ------- null}
r -t 1.13556 -s 0 -d 2 -p cbr -e 210 -c 0 -i 14 -a 0 -x {0.0 5.0 12 ------- null}
+ -t 1.13556 -s 2 -d 3 -p cbr -e 210 -c 0 -i 14 -a 0 -x {0.0 5.0 12 ------- null}
- -t 1.13556 -s 2 -d 3 -p cbr -e 210 -c 0 -i 14 -a 0 -x {0.0 5.0 12 ------- null}
h -t 1.13556 -s 2 -d 3 -p cbr -e 210 -c 0 -i 14 -a 0 -x {0.0 5.0 -1 ------- null}
+ -t 1.1364 -s 3 -d 6 -p cbr -e 210 -c 0 -i 7 -a 0 -x {0.0 5.0 6 ------- null}
- -t 1.1364 -s 3 -d 6 -p cbr -e 210 -c 0 -i 7 -a 0 -x {0.0 5.0 6 ------- null}
h -t 1.1364 -s 3 -d 6 -p cbr -e 210 -c 0 -i 7 -a 0 -x {0.0 5.0 -1 ------- null}
r -t 1.1364 -s 2 -d 3 -p cbr -e 210 -c 0 -i 11 -a 0 -x {0.0 5.0 10 ------- null}
h -t 1.1364 -s 3 -d 6 -p cbr -e 210 -c 0 -i 11 -a 0 -x {0.0 5.0 10 ------- null}
r -t 1.136404 -s 6 -d 5 -p cbr -e 210 -c 0 -i 3 -a 0 -x {0.0 5.0 2 ------- null}
d -t 1.136404 -s 4 -d 6 -p cbr -e 210 -c 0 -i 7 -a 0 -x {0.0 5.0 6 ------- null}
+ -t 1.14 -s 0 -d 2 -p cbr -e 210 -c 0 -i 16 -a 0 -x {0.0 5.0 14 ------- null}
- -t 1.14 -s 0 -d 2 -p cbr -e 210 -c 0 -i 16 -a 0 -x {0.0 5.0 14 ------- null}
h -t 1.14 -s 0 -d 2 -p cbr -e 210 -c 0 -i 16 -a 0 -x {0.0 5.0 -1 ------- null}
r -t 1.14556 -s 0 -d 2 -p cbr -e 210 -c 0 -i 15 -a 0 -x {0.0 5.0 13 ------- null}
+ -t 1.14556 -s 2 -d 3 -p cbr -e 210 -c 0 -i 15 -a 0 -x {0.0 5.0 13 ------- null}
- -t 1.14556 -s 2 -d 3 -p cbr -e 210 -c 0 -i 15 -a 0 -x {0.0 5.0 13 ------- null}
h -t 1.14556 -s 2 -d 3 -p cbr -e 210 -c 0 -i 15 -a 0 -x {0.0 5.0 -1 ------- null}
+ -t 1.1464 -s 3 -d 6 -p cbr -e 210 -c 0 -i 8 -a 0 -x {0.0 5.0 7 ------- null}
- -t 1.1464 -s 3 -d 6 -p cbr -e 210 -c 0 -i 8 -a 0 -x {0.0 5.0 7 ------- null}
h -t 1.1464 -s 3 -d 6 -p cbr -e 210 -c 0 -i 8 -a 0 -x {0.0 5.0 -1 ------- null}
r -t 1.1464 -s 2 -d 3 -p cbr -e 210 -c 0 -i 12 -a 0 -x {0.0 5.0 11 ------- null}
h -t 1.1464 -s 3 -d 6 -p cbr -e 210 -c 0 -i 12 -a 0 -x {0.0 5.0 11 ------- null}
r -t 1.146404 -s 6 -d 5 -p cbr -e 210 -c 0 -i 4 -a 0 -x {0.0 5.0 3 ------- null}
d -t 1.146404 -s 4 -d 6 -p cbr -e 210 -c 0 -i 8 -a 0 -x {0.0 5.0 7 ------- null}
+ -t 1.15 -s 0 -d 2 -p cbr -e 210 -c 0 -i 17 -a 0 -x {0.0 5.0 15 ------- null}
- -t 1.15 -s 0 -d 2 -p cbr -e 210 -c 0 -i 17 -a 0 -x {0.0 5.0 15 ------- null}
h -t 1.15 -s 0 -d 2 -p cbr -e 210 -c 0 -i 17 -a 0 -x {0.0 5.0 -1 ------- null}
+ -t 1.15537733333333 -s 5 -d 6 -p ack -e 40 -c 0 -i 13 -a 0 -x {5.1 1.0 0 ------- null}
- -t 1.15537733333333 -s 5 -d 6 -p ack -e 40 -c 0 -i 13 -a 0 -x {5.1 1.0 0 ------- null}
h -t 1.15537733333333 -s 5 -d 6 -p ack -e 40 -c 0 -i 13 -a 0 -x {5.1 1.0 -1 ------- null}
d -t 1.15538133333333 -s 4 -d 6 -p ack -e 40 -c 0 -i 13 -a 0 -x {5.1 1.0 0 ------- null}
r -t 1.15556 -s 0 -d 2 -p cbr -e 210 -c 0 -i 16 -a 0 -x {0.0 5.0 14 ------- null}
+ -t 1.15556 -s 2 -d 3 -p cbr -e 210 -c 0 -i 16 -a 0 -x {0.0 5.0 14 ------- null}
- -t 1.15556 -s 2 -d 3 -p cbr -e 210 -c 0 -i 16 -a 0 -x {0.0 5.0 14 ------- null}
h -t 1.15556 -s 2 -d 3 -p cbr -e 210 -c 0 -i 16 -a 0 -x {0.0 5.0 -1 ------- null}
+ -t 1.1564 -s 3 -d 6 -p cbr -e 210 -c 0 -i 9 -a 0 -x {0.0 5.0 8 ------- null}
- -t 1.1564 -s 3 -d 6 -p cbr -e 210 -c 0 -i 9 -a 0 -x {0.0 5.0 8 ------- null}
h -t 1.1564 -s 3 -d 6 -p cbr -e 210 -c 0 -i 9 -a 0 -x {0.0 5.0 -1 ------- null}
r -t 1.1564 -s 2 -d 3 -p cbr -e 210 -c 0 -i 14 -a 0 -x {0.0 5.0 12 ------- null}
h -t 1.1564 -s 3 -d 6 -p cbr -e 210 -c 0 -i 14 -a 0 -x {0.0 5.0 12 ------- null}
r -t 1.156404 -s 6 -d 5 -p cbr -e 210 -c 0 -i 5 -a 0 -x {0.0 5.0 4 ------- null}
d -t 1.156404 -s 4 -d 6 -p cbr -e 210 -c 0 -i 9 -a 0 -x {0.0 5.0 8 ------- null}
+ -t 1.16 -s 0 -d 2 -p cbr -e 210 -c 0 -i 18 -a 0 -x {0.0 5.0 16 ------- null}
- -t 1.16 -s 0 -d 2 -p cbr -e 210 -c 0 -i 18 -a 0 -x {0.0 5.0 16 ------- null}
h -t 1.16 -s 0 -d 2 -p cbr -e 210 -c 0 -i 18 -a 0 -x {0.0 5.0 -1 ------- null}
r -t 1.16556 -s 0 -d 2 -p cbr -e 210 -c 0 -i 17 -a 0 -x {0.0 5.0 15 ------- null}
+ -t 1.16556 -s 2 -d 3 -p cbr -e 210 -c 0 -i 17 -a 0 -x {0.0 5.0 15 ------- null}
- -t 1.16556 -s 2 -d 3 -p cbr -e 210 -c 0 -i 17 -a 0 -x {0.0 5.0 15 ------- null}
h -t 1.16556 -s 2 -d 3 -p cbr -e 210 -c 0 -i 17 -a 0 -x {0.0 5.0 -1 ------- null}
+ -t 1.1664 -s 3 -d 6 -p cbr -e 210 -c 0 -i 10 -a 0 -x {0.0 5.0 9 ------- null}
- -t 1.1664 -s 3 -d 6 -p cbr -e 210 -c 0 -i 10 -a 0 -x {0.0 5.0 9 ------- null}
h -t 1.1664 -s 3 -d 6 -p cbr -e 210 -c 0 -i 10 -a 0 -x {0.0 5.0 -1 ------- null}
r -t 1.1664 -s 2 -d 3 -p cbr -e 210 -c 0 -i 15 -a 0 -x {0.0 5.0 13 ------- null}
h -t 1.1664 -s 3 -d 6 -p cbr -e 210 -c 0 -i 15 -a 0 -x {0.0 5.0 13 ------- null}
r -t 1.166404 -s 6 -d 5 -p cbr -e 210 -c 0 -i 6 -a 0 -x {0.0 5.0 5 ------- null}
d -t 1.166404 -s 4 -d 6 -p cbr -e 210 -c 0 -i 10 -a 0 -x {0.0 5.0 9 ------- null}
+ -t 1.17 -s 0 -d 2 -p cbr -e 210 -c 0 -i 19 -a 0 -x {0.0 5.0 17 ------- null}
- -t 1.17 -s 0 -d 2 -p cbr -e 210 -c 0 -i 19 -a 0 -x {0.0 5.0 17 ------- null}
h -t 1.17 -s 0 -d 2 -p cbr -e 210 -c 0 -i 19 -a 0 -x {0.0 5.0 -1 ------- null}
r -t 1.17556 -s 0 -d 2 -p cbr -e 210 -c 0 -i 18 -a 0 -x {0.0 5.0 16 ------- null}
+ -t 1.17556 -s 2 -d 3 -p cbr -e 210 -c 0 -i 18 -a 0 -x {0.0 5.0 16 ------- null}
- -t 1.17556 -s 2 -d 3 -p cbr -e 210 -c 0 -i 18 -a 0 -x {0.0 5.0 16 ------- null}
h -t 1.17556 -s 2 -d 3 -p cbr -e 210 -c 0 -i 18 -a 0 -x {0.0 5.0 -1 ------- null}
+ -t 1.1764 -s 3 -d 6 -p cbr -e 210 -c 0 -i 11 -a 0 -x {0.0 5.0 10 ------- null}
- -t 1.1764 -s 3 -d 6 -p cbr -e 210 -c 0 -i 11 -a 0 -x {0.0 5.0 10 ------- null}
h -t 1.1764 -s 3 -d 6 -p cbr -e 210 -c 0 -i 11 -a 0 -x {0.0 5.0 -1 ------- null}
r -t 1.1764 -s 2 -d 3 -p cbr -e 210 -c 0 -i 16 -a 0 -x {0.0 5.0 14 ------- null}
h -t 1.1764 -s 3 -d 6 -p cbr -e 210 -c 0 -i 16 -a 0 -x {0.0 5.0 14 ------- null}
r -t 1.176404 -s 6 -d 5 -p cbr -e 210 -c 0 -i 7 -a 0 -x {0.0 5.0 6 ------- null}
d -t 1.176404 -s 4 -d 6 -p cbr -e 210 -c 0 -i 11 -a 0 -x {0.0 5.0 10 ------- null}
+ -t 1.18 -s 0 -d 2 -p cbr -e 210 -c 0 -i 20 -a 0 -x {0.0 5.0 18 ------- null}
- -t 1.18 -s 0 -d 2 -p cbr -e 210 -c 0 -i 20 -a 0 -x {0.0 5.0 18 ------- null}
h -t 1.18 -s 0 -d 2 -p cbr -e 210 -c 0 -i 20 -a 0 -x {0.0 5.0 -1 ------- null}
r -t 1.18556 -s 0 -d 2 -p cbr -e 210 -c 0 -i 19 -a 0 -x {0.0 5.0 17 ------- null}
+ -t 1.18556 -s 2 -d 3 -p cbr -e 210 -c 0 -i 19 -a 0 -x {0.0 5.0 17 ------- null}
- -t 1.18556 -s 2 -d 3 -p cbr -e 210 -c 0 -i 19 -a 0 -x {0.0 5.0 17 ------- null}
h -t 1.18556 -s 2 -d 3 -p cbr -e 210 -c 0 -i 19 -a 0 -x {0.0 5.0 -1 ------- null}
+ -t 1.1864 -s 3 -d 6 -p cbr -e 210 -c 0 -i 12 -a 0 -x {0.0 5.0 11 ------- null}
- -t 1.1864 -s 3 -d 6 -p cbr -e 210 -c 0 -i 12 -a 0 -x {0.0 5.0 11 ------- null}
h -t 1.1864 -s 3 -d 6 -p cbr -e 210 -c 0 -i 12 -a 0 -x {0.0 5.0 -1 ------- null}
r -t 1.1864 -s 2 -d 3 -p cbr -e 210 -c 0 -i 17 -a 0 -x {0.0 5.0 15 ------- null}
h -t 1.1864 -s 3 -d 6 -p cbr -e 210 -c 0 -i 17 -a 0 -x {0.0 5.0 15 ------- null}
r -t 1.186404 -s 6 -d 5 -p cbr -e 210 -c 0 -i 8 -a 0 -x {0.0 5.0 7 ------- null}
d -t 1.186404 -s 4 -d 6 -p cbr -e 210 -c 0 -i 12 -a 0 -x {0.0 5.0 11 ------- null}
+ -t 1.19 -s 0 -d 2 -p cbr -e 210 -c 0 -i 21 -a 0 -x {0.0 5.0 19 ------- null}
- -t 1.19 -s 0 -d 2 -p cbr -e 210 -c 0 -i 21 -a 0 -x {0.0 5.0 19 ------- null}
h -t 1.19 -s 0 -d 2 -p cbr -e 210 -c 0 -i 21 -a 0 -x {0.0 5.0 -1 ------- null}
r -t 1.19538133333333 -s 6 -d 3 -p ack -e 40 -c 0 -i 13 -a 0 -x {5.1 1.0 0 ------- null}
+ -t 1.19538133333333 -s 3 -d 2 -p ack -e 40 -c 0 -i 13 -a 0 -x {5.1 1.0 0 ------- null}
- -t 1.19538133333333 -s 3 -d 2 -p ack -e 40 -c 0 -i 13 -a 0 -x {5.1 1.0 0 ------- null}
h -t 1.19538133333333 -s 3 -d 2 -p ack -e 40 -c 0 -i 13 -a 0 -x {5.1 1.0 -1 ------- null}
r -t 1.19556 -s 0 -d 2 -p cbr -e 210 -c 0 -i 20 -a 0 -x {0.0 5.0 18 ------- null}
+ -t 1.19556 -s 2 -d 3 -p cbr -e 210 -c 0 -i 20 -a 0 -x {0.0 5.0 18 ------- null}
- -t 1.19556 -s 2 -d 3 -p cbr -e 210 -c 0 -i 20 -a 0 -x {0.0 5.0 18 ------- null}
h -t 1.19556 -s 2 -d 3 -p cbr -e 210 -c 0 -i 20 -a 0 -x {0.0 5.0 -1 ------- null}
+ -t 1.1964 -s 3 -d 6 -p cbr -e 210 -c 0 -i 14 -a 0 -x {0.0 5.0 12 ------- null}
- -t 1.1964 -s 3 -d 6 -p cbr -e 210 -c 0 -i 14 -a 0 -x {0.0 5.0 12 ------- null}
h -t 1.1964 -s 3 -d 6 -p cbr -e 210 -c 0 -i 14 -a 0 -x {0.0 5.0 -1 ------- null}
r -t 1.1964 -s 2 -d 3 -p cbr -e 210 -c 0 -i 18 -a 0 -x {0.0 5.0 16 ------- null}
h -t 1.1964 -s 3 -d 6 -p cbr -e 210 -c 0 -i 18 -a 0 -x {0.0 5.0 16 ------- null}
r -t 1.196404 -s 6 -d 5 -p cbr -e 210 -c 0 -i 9 -a 0 -x {0.0 5.0 8 ------- null}
d -t 1.196404 -s 4 -d 6 -p cbr -e 210 -c 0 -i 14 -a 0 -x {0.0 5.0 12 ------- null}
+ -t 1.2 -s 0 -d 2 -p cbr -e 210 -c 0 -i 22 -a 0 -x {0.0 5.0 20 ------- null}
- -t 1.2 -s 0 -d 2 -p cbr -e 210 -c 0 -i 22 -a 0 -x {0.0 5.0 20 ------- null}
h -t 1.2 -s 0 -d 2 -p cbr -e 210 -c 0 -i 22 -a 0 -x {0.0 5.0 -1 ------- null}
r -t 1.20556 -s 0 -d 2 -p cbr -e 210 -c 0 -i 21 -a 0 -x {0.0 5.0 19 ------- null}
+ -t 1.20556 -s 2 -d 3 -p cbr -e 210 -c 0 -i 21 -a 0 -x {0.0 5.0 19 ------- null}
- -t 1.20556 -s 2 -d 3 -p cbr -e 210 -c 0 -i 21 -a 0 -x {0.0 5.0 19 ------- null}
h -t 1.20556 -s 2 -d 3 -p cbr -e 210 -c 0 -i 21 -a 0 -x {0.0 5.0 -1 ------- null}
+ -t 1.2064 -s 3 -d 6 -p cbr -e 210 -c 0 -i 15 -a 0 -x {0.0 5.0 13 ------- null}
- -t 1.2064 -s 3 -d 6 -p cbr -e 210 -c 0 -i 15 -a 0 -x {0.0 5.0 13 ------- null}
h -t 1.2064 -s 3 -d 6 -p cbr -e 210 -c 0 -i 15 -a 0 -x {0.0 5.0 -1 ------- null}
r -t 1.2064 -s 2 -d 3 -p cbr -e 210 -c 0 -i 19 -a 0 -x {0.0 5.0 17 ------- null}
h -t 1.2064 -s 3 -d 6 -p cbr -e 210 -c 0 -i 19 -a 0 -x {0.0 5.0 17 ------- null}
r -t 1.206404 -s 6 -d 5 -p cbr -e 210 -c 0 -i 10 -a 0 -x {0.0 5.0 9 ------- null}
d -t 1.206404 -s 4 -d 6 -p cbr -e 210 -c 0 -i 15 -a 0 -x {0.0 5.0 13 ------- null}
+ -t 1.21 -s 0 -d 2 -p cbr -e 210 -c 0 -i 23 -a 0 -x {0.0 5.0 21 ------- null}
- -t 1.21 -s 0 -d 2 -p cbr -e 210 -c 0 -i 23 -a 0 -x {0.0 5.0 21 ------- null}
h -t 1.21 -s 0 -d 2 -p cbr -e 210 -c 0 -i 23 -a 0 -x {0.0 5.0 -1 ------- null}
r -t 1.21554133333333 -s 3 -d 2 -p ack -e 40 -c 0 -i 13 -a 0 -x {5.1 1.0 0 ------- null}
+ -t 1.21554133333333 -s 2 -d 1 -p ack -e 40 -c 0 -i 13 -a 0 -x {5.1 1.0 0 ------- null}
- -t 1.21554133333333 -s 2 -d 1 -p ack -e 40 -c 0 -i 13 -a 0 -x {5.1 1.0 0 ------- null}
h -t 1.21554133333333 -s 2 -d 1 -p ack -e 40 -c 0 -i 13 -a 0 -x {5.1 1.0 -1 ------- null}
r -t 1.21556 -s 0 -d 2 -p cbr -e 210 -c 0 -i 22 -a 0 -x {0.0 5.0 20 ------- null}
+ -t 1.21556 -s 2 -d 3 -p cbr -e 210 -c 0 -i 22 -a 0 -x {0.0 5.0 20 ------- null}
- -t 1.21556 -s 2 -d 3 -p cbr -e 210 -c 0 -i 22 -a 0 -x {0.0 5.0 20 ------- null}
h -t 1.21556 -s 2 -d 3 -p cbr -e 210 -c 0 -i 22 -a 0 -x {0.0 5.0 -1 ------- null}
+ -t 1.2164 -s 3 -d 6 -p cbr -e 210 -c 0 -i 16 -a 0 -x {0.0 5.0 14 ------- null}
- -t 1.2164 -s 3 -d 6 -p cbr -e 210 -c 0 -i 16 -a 0 -x {0.0 5.0 14 ------- null}
h -t 1.2164 -s 3 -d 6 -p cbr -e 210 -c 0 -i 16 -a 0 -x {0.0 5.0 -1 ------- null}
r -t 1.2164 -s 2 -d 3 -p cbr -e 210 -c 0 -i 20 -a 0 -x {0.0 5.0 18 ------- null}
h -t 1.2164 -s 3 -d 6 -p cbr -e 210 -c 0 -i 20 -a 0 -x {0.0 5.0 18 ------- null}
r -t 1.216404 -s 6 -d 5 -p cbr -e 210 -c 0 -i 11 -a 0 -x {0.0 5.0 10 ------- null}
d -t 1.216404 -s 4 -d 6 -p cbr -e 210 -c 0 -i 16 -a 0 -x {0.0 5.0 14 ------- null}
+ -t 1.22 -s 0 -d 2 -p cbr -e 210 -c 0 -i 24 -a 0 -x {0.0 5.0 22 ------- null}
- -t 1.22 -s 0 -d 2 -p cbr -e 210 -c 0 -i 24 -a 0 -x {0.0 5.0 22 ------- null}
h -t 1.22 -s 0 -d 2 -p cbr -e 210 -c 0 -i 24 -a 0 -x {0.0 5.0 -1 ------- null}
r -t 1.22556 -s 0 -d 2 -p cbr -e 210 -c 0 -i 23 -a 0 -x {0.0 5.0 21 ------- null}
+ -t 1.22556 -s 2 -d 3 -p cbr -e 210 -c 0 -i 23 -a 0 -x {0.0 5.0 21 ------- null}
- -t 1.22556 -s 2 -d 3 -p cbr -e 210 -c 0 -i 23 -a 0 -x {0.0 5.0 21 ------- null}
h -t 1.22556 -s 2 -d 3 -p cbr -e 210 -c 0 -i 23 -a 0 -x {0.0 5.0 -1 ------- null}
+ -t 1.2264 -s 3 -d 6 -p cbr -e 210 -c 0 -i 17 -a 0 -x {0.0 5.0 15 ------- null}
- -t 1.2264 -s 3 -d 6 -p cbr -e 210 -c 0 -i 17 -a 0 -x {0.0 5.0 15 ------- null}
h -t 1.2264 -s 3 -d 6 -p cbr -e 210 -c 0 -i 17 -a 0 -x {0.0 5.0 -1 ------- null}
r -t 1.2264 -s 2 -d 3 -p cbr -e 210 -c 0 -i 21 -a 0 -x {0.0 5.0 19 ------- null}
h -t 1.2264 -s 3 -d 6 -p cbr -e 210 -c 0 -i 21 -a 0 -x {0.0 5.0 19 ------- null}
r -t 1.226404 -s 6 -d 5 -p cbr -e 210 -c 0 -i 12 -a 0 -x {0.0 5.0 11 ------- null}
d -t 1.226404 -s 4 -d 6 -p cbr -e 210 -c 0 -i 17 -a 0 -x {0.0 5.0 15 ------- null}
+ -t 1.23 -s 0 -d 2 -p cbr -e 210 -c 0 -i 25 -a 0 -x {0.0 5.0 23 ------- null}
- -t 1.23 -s 0 -d 2 -p cbr -e 210 -c 0 -i 25 -a 0 -x {0.0 5.0 23 ------- null}
h -t 1.23 -s 0 -d 2 -p cbr -e 210 -c 0 -i 25 -a 0 -x {0.0 5.0 -1 ------- null}
r -t 1.23075466666667 -s 2 -d 1 -p ack -e 40 -c 0 -i 13 -a 0 -x {5.1 1.0 0 ------- null}
+ -t 1.23075466666667 -s 1 -d 2 -p tcp -e 1040 -c 0 -i 26 -a 0 -x {1.0 5.1 1 ------- null}
- -t 1.23075466666667 -s 1 -d 2 -p tcp -e 1040 -c 0 -i 26 -a 0 -x {1.0 5.1 1 ------- null}
h -t 1.23075466666667 -s 1 -d 2 -p tcp -e 1040 -c 0 -i 26 -a 0 -x {1.0 5.1 -1 ------- null}
+ -t 1.23075466666667 -s 1 -d 2 -p tcp -e 1040 -c 0 -i 27 -a 0 -x {1.0 5.1 2 ------- null}
r -t 1.23556 -s 0 -d 2 -p cbr -e 210 -c 0 -i 24 -a 0 -x {0.0 5.0 22 ------- null}
+ -t 1.23556 -s 2 -d 3 -p cbr -e 210 -c 0 -i 24 -a 0 -x {0.0 5.0 22 ------- null}
- -t 1.23556 -s 2 -d 3 -p cbr -e 210 -c 0 -i 24 -a 0 -x {0.0 5.0 22 ------- null}
h -t 1.23556 -s 2 -d 3 -p cbr -e 210 -c 0 -i 24 -a 0 -x {0.0 5.0 -1 ------- null}
- -t 1.23630133333333 -s 1 -d 2 -p tcp -e 1040 -c 0 -i 27 -a 0 -x {1.0 5.1 2 ------- null}
h -t 1.23630133333333 -s 1 -d 2 -p tcp -e 1040 -c 0 -i 27 -a 0 -x {1.0 5.1 -1 ------- null}
+ -t 1.2364 -s 3 -d 6 -p cbr -e 210 -c 0 -i 18 -a 0 -x {0.0 5.0 16 ------- null}
- -t 1.2364 -s 3 -d 6 -p cbr -e 210 -c 0 -i 18 -a 0 -x {0.0 5.0 16 ------- null}
h -t 1.2364 -s 3 -d 6 -p cbr -e 210 -c 0 -i 18 -a 0 -x {0.0 5.0 -1 ------- null}
r -t 1.2364 -s 2 -d 3 -p cbr -e 210 -c 0 -i 22 -a 0 -x {0.0 5.0 20 ------- null}
h -t 1.2364 -s 3 -d 6 -p cbr -e 210 -c 0 -i 22 -a 0 -x {0.0 5.0 20 ------- null}
r -t 1.236404 -s 6 -d 5 -p cbr -e 210 -c 0 -i 14 -a 0 -x {0.0 5.0 12 ------- null}
d -t 1.236404 -s 4 -d 6 -p cbr -e 210 -c 0 -i 18 -a 0 -x {0.0 5.0 16 ------- null}
+ -t 1.24 -s 0 -d 2 -p cbr -e 210 -c 0 -i 28 -a 0 -x {0.0 5.0 24 ------- null}
- -t 1.24 -s 0 -d 2 -p cbr -e 210 -c 0 -i 28 -a 0 -x {0.0 5.0 24 ------- null}
h -t 1.24 -s 0 -d 2 -p cbr -e 210 -c 0 -i 28 -a 0 -x {0.0 5.0 -1 ------- null}
r -t 1.24556 -s 0 -d 2 -p cbr -e 210 -c 0 -i 25 -a 0 -x {0.0 5.0 23 ------- null}
+ -t 1.24556 -s 2 -d 3 -p cbr -e 210 -c 0 -i 25 -a 0 -x {0.0 5.0 23 ------- null}
- -t 1.24556 -s 2 -d 3 -p cbr -e 210 -c 0 -i 25 -a 0 -x {0.0 5.0 23 ------- null}
h -t 1.24556 -s 2 -d 3 -p cbr -e 210 -c 0 -i 25 -a 0 -x {0.0 5.0 -1 ------- null}
+ -t 1.2464 -s 3 -d 6 -p cbr -e 210 -c 0 -i 19 -a 0 -x {0.0 5.0 17 ------- null}
- -t 1.2464 -s 3 -d 6 -p cbr -e 210 -c 0 -i 19 -a 0 -x {0.0 5.0 17 ------- null}
h -t 1.2464 -s 3 -d 6 -p cbr -e 210 -c 0 -i 19 -a 0 -x {0.0 5.0 -1 ------- null}
r -t 1.2464 -s 2 -d 3 -p cbr -e 210 -c 0 -i 23 -a 0 -x {0.0 5.0 21 ------- null}
h -t 1.2464 -s 3 -d 6 -p cbr -e 210 -c 0 -i 23 -a 0 -x {0.0 5.0 21 ------- null}
r -t 1.246404 -s 6 -d 5 -p cbr -e 210 -c 0 -i 15 -a 0 -x {0.0 5.0 13 ------- null}
d -t 1.246404 -s 4 -d 6 -p cbr -e 210 -c 0 -i 19 -a 0 -x {0.0 5.0 17 ------- null}
+ -t 1.25 -s 0 -d 2 -p cbr -e 210 -c 0 -i 29 -a 0 -x {0.0 5.0 25 ------- null}
- -t 1.25 -s 0 -d 2 -p cbr -e 210 -c 0 -i 29 -a 0 -x {0.0 5.0 25 ------- null}
h -t 1.25 -s 0 -d 2 -p cbr -e 210 -c 0 -i 29 -a 0 -x {0.0 5.0 -1 ------- null}
r -t 1.25130133333333 -s 1 -d 2 -p tcp -e 1040 -c 0 -i 26 -a 0 -x {1.0 5.1 1 ------- null}
+ -t 1.25130133333333 -s 2 -d 3 -p tcp -e 1040 -c 0 -i 26 -a 0 -x {1.0 5.1 1 ------- null}
- -t 1.25130133333333 -s 2 -d 3 -p tcp -e 1040 -c 0 -i 26 -a 0 -x {1.0 5.1 1 ------- null}
h -t 1.25130133333333 -s 2 -d 3 -p tcp -e 1040 -c 0 -i 26 -a 0 -x {1.0 5.1 -1 ------- null}
r -t 1.25556 -s 0 -d 2 -p cbr -e 210 -c 0 -i 28 -a 0 -x {0.0 5.0 24 ------- null}
+ -t 1.25556 -s 2 -d 3 -p cbr -e 210 -c 0 -i 28 -a 0 -x {0.0 5.0 24 ------- null}
- -t 1.25556 -s 2 -d 3 -p cbr -e 210 -c 0 -i 28 -a 0 -x {0.0 5.0 24 ------- null}
h -t 1.25556 -s 2 -d 3 -p cbr -e 210 -c 0 -i 28 -a 0 -x {0.0 5.0 -1 ------- null}
+ -t 1.2564 -s 3 -d 6 -p cbr -e 210 -c 0 -i 20 -a 0 -x {0.0 5.0 18 ------- null}
- -t 1.2564 -s 3 -d 6 -p cbr -e 210 -c 0 -i 20 -a 0 -x {0.0 5.0 18 ------- null}
h -t 1.2564 -s 3 -d 6 -p cbr -e 210 -c 0 -i 20 -a 0 -x {0.0 5.0 -1 ------- null}
r -t 1.2564 -s 2 -d 3 -p cbr -e 210 -c 0 -i 24 -a 0 -x {0.0 5.0 22 ------- null}
h -t 1.2564 -s 3 -d 6 -p cbr -e 210 -c 0 -i 24 -a 0 -x {0.0 5.0 22 ------- null}
r -t 1.256404 -s 6 -d 5 -p cbr -e 210 -c 0 -i 16 -a 0 -x {0.0 5.0 14 ------- null}
d -t 1.256404 -s 4 -d 6 -p cbr -e 210 -c 0 -i 20 -a 0 -x {0.0 5.0 18 ------- null}
r -t 1.256848 -s 1 -d 2 -p tcp -e 1040 -c 0 -i 27 -a 0 -x {1.0 5.1 2 ------- null}
+ -t 1.256848 -s 2 -d 3 -p tcp -e 1040 -c 0 -i 27 -a 0 -x {1.0 5.1 2 ------- null}
- -t 1.256848 -s 2 -d 3 -p tcp -e 1040 -c 0 -i 27 -a 0 -x {1.0 5.1 2 ------- null}
h -t 1.256848 -s 2 -d 3 -p tcp -e 1040 -c 0 -i 27 -a 0 -x {1.0 5.1 -1 ------- null}
+ -t 1.26 -s 0 -d 2 -p cbr -e 210 -c 0 -i 30 -a 0 -x {0.0 5.0 26 ------- null}
- -t 1.26 -s 0 -d 2 -p cbr -e 210 -c 0 -i 30 -a 0 -x {0.0 5.0 26 ------- null}
h -t 1.26 -s 0 -d 2 -p cbr -e 210 -c 0 -i 30 -a 0 -x {0.0 5.0 -1 ------- null}