V -t * -v 1.0a5 -a 0
A -t * -n 1 -p 0 -o 0x7fffffff -c 30 -a 1
A -t * -h 1 -m 1073741823 -s 0
n -t * -a 0 -s 0 -S UP -v circle -c black -i black
n -t * -a 1 -s 1 -S UP -v circle -c black -i black
l -t * -s 0 -d 1 -S UP -r 2000000 -D 0.002 -c black
+ -t 1 -s 0 -d 1 -p cbr -e 210 -c 0 -i 0 -a 0 -x {0.0 1.1 0 ------- null}
- -t 1 -s 0 -d 1 -p cbr -e 210 -c 0 -i 0 -a 0 -x {0.0 1.1 0 ------- null}
h -t 1 -s 0 -d 1 -p cbr -e 210 -c 0 -i 0 -a 0 -x {0.0 1.1 -1 ------- null}
+ -t 1 -s 1 -d 0 -p cbr -e 210 -c 0 -i 1 -a 0 -x {1.0 0.1 0 ------- null}
- -t 1 -s 1 -d 0 -p cbr -e 210 -c 0 -i 1 -a 0 -x {1.0 0.1 0 ------- null}
h -t 1 -s 1 -d 0 -p cbr -e 210 -c 0 -i 1 -a 0 -x {1.0 0.1 -1 ------- null}
+ -t 1.001 -s 0 -d 1 -p cbr -e 210 -c 0 -i 2 -a 0 -x {0.0 1.1 1 ------- null}
- -t 1.001 -s 0 -d 1 -p cbr -e 210 -c 0 -i 2 -a 0 -x {0.0 1.1 1 ------- null}
h -t 1.001 -s 0 -d 1 -p cbr -e 210 -c 0 -i 2 -a 0 -x {0.0 1.1 -1 ------- null}
+ -t 1.002 -s 0 -d 1 -p cbr -e 210 -c 0 -i 3 -a 0 -x {0.0 1.1 2 ------- null}
- -t 1.002 -s 0 -d 1 -p cbr -e 210 -c 0 -i 3 -a 0 -x {0.0 1.1 2 ------- null}
h -t 1.002 -s 0 -d 1 -p cbr -e 210 -c 0 -i 3 -a 0 -x {0.0 1.1 -1 ------- null}
+ -t 1.002 -s 1 -d 0 -p cbr -e 210 -c 0 -i 4 -a 0 -x {1.0 0.1 1 ------- null}
- -t 1.002 -s 1 -d 0 -p cbr -e 210 -c 0 -i 4 -a 0 -x {1.0 0.1 1 ------- null}
h -t 1.002 -s 1 -d 0 -p cbr -e 210 -c 0 -i 4 -a 0 -x {1.0 0.1 -1 ------- null}
r -t 1.00284 -s 0 -d 1 -p cbr -e 210 -c 0 -i 0 -a 0 -x {0.0 1.1 0 ------- null}
r -t 1.00284 -s 1 -d 0 -p cbr -e 210 -c 0 -i 1 -a 0 -x {1.0 0.1 0 ------- null}
+ -t 1.003 -s 0 -d 1 -p cbr -e 210 -c 0 -i 5 -a 0 -x {0.0 1.1 3 ------- null}
- -t 1.003 -s 0 -d 1 -p cbr -e 210 -c 0 -i 5 -a 0 -x {0.0 1.1 3 ------- null}
h -t 1.003 -s 0 -d 1 -p cbr -e 210 -c 0 -i 5 -a 0 -x {0.0 1.1 -1 ------- null}
r -t 1.00384 -s 0 -d 1 -p cbr -e 210 -c 0 -i 2 -a 0 -x {0.0 1.1 1 ------- null}
+ -t 1.004 -s 0 -d 1 -p cbr -e 210 -c 0 -i 6 -a 0 -x {0.0 1.1 4 ------- null}
- -t 1.004 -s 0 -d 1 -p cbr -e 210 -c 0 -i 6 -a 0 -x {0.0 1.1 4 ------- null}
h -t 1.004 -s 0 -d 1 -p cbr -e 210 -c 0 -i 6 -a 0 -x {0.0 1.1 -1 ------- null}
+ -t 1.004 -s 1 -d 0 -p cbr -e 210 -c 0 -i 7 -a 0 -x {1.0 0.1 2 ------- null}
- -t 1.004 -s 1 -d 0 -p cbr -e 210 -c 0 -i 7 -a 0 -x {1.0 0.1 2 ------- null}
h -t 1.004 -s 1 -d 0 -p cbr -e 210 -c 0 -i 7 -a 0 -x {1.0 0.1 -1 ------- null}
r -t 1.00484 -s 0 -d 1 -p cbr -e 210 -c 0 -i 3 -a 0 -x {0.0 1.1 2 ------- null}
r -t 1.00484 -s 1 -d 0 -p cbr -e 210 -c 0 -i 4 -a 0 -x {1.0 0.1 1 ------- null}
+ -t 1.005 -s 0 -d 1 -p cbr -e 210 -c 0 -i 8 -a 0 -x {0.0 1.1 5 ------- null}
- -t 1.005 -s 0 -d 1 -p cbr -e 210 -c 0 -i 8 -a 0 -x {0.0 1.1 5 ------- null}
h -t 1.005 -s 0 -d 1 -p cbr -e 210 -c 0 -i 8 -a 0 -x {0.0 1.1 -1 ------- null}
r -t 1.00584 -s 0 -d 1 -p cbr -e 210 -c 0 -i 5 -a 0 -x {0.0 1.1 3 ------- null}
+ -t 1.006 -s 0 -d 1 -p cbr -e 210 -c 0 -i 9 -a 0 -x {0.0 1.1 6 ------- null}
- -t 1.006 -s 0 -d 1 -p cbr -e 210 -c 0 -i 9 -a 0 -x {0.0 1.1 6 ------- null}
h -t 1.006 -s 0 -d 1 -p cbr -e 210 -c 0 -i 9 -a 0 -x {0.0 1.1 -1 ------- null}
+ -t 1.006 -s 1 -d 0 -p cbr -e 210 -c 0 -i 10 -a 0 -x {1.0 0.1 3 ------- null}
- -t 1.006 -s 1 -d 0 -p cbr -e 210 -c 0 -i 10 -a 0 -x {1.0 0.1 3 ------- null}
h -t 1.006 -s 1 -d 0 -p cbr -e 210 -c 0 -i 10 -a 0 -x {1.0 0.1 -1 ------- null}
r -t 1.00684 -s 0 -d 1 -p cbr -e 210 -c 0 -i 6 -a 0 -x {0.0 1.1 4 ------- null}
r -t 1.00684 -s 1 -d 0 -p cbr -e 210 -c 0 -i 7 -a 0 -x {1.0 0.1 2 ------- null}
+ -t 1.007 -s 0 -d 1 -p cbr -e 210 -c 0 -i 11 -a 0 -x {0.0 1.1 7 ------- null}
- -t 1.007 -s 0 -d 1 -p cbr -e 210 -c 0 -i 11 -a 0 -x {0.0 1.1 7 ------- null}
h -t 1.007 -s 0 -d 1 -p cbr -e 210 -c 0 -i 11 -a 0 -x {0.0 1.1 -1 ------- null}
r -t 1.00784 -s 0 -d 1 -p cbr -e 210 -c 0 -i 8 -a 0 -x {0.0 1.1 5 ------- null}
+ -t 1.008 -s 0 -d 1 -p cbr -e 210 -c 0 -i 12 -a 0 -x {0.0 1.1 8 ------- null}
- -t 1.008 -s 0 -d 1 -p cbr -e 210 -c 0 -i 12 -a 0 -x {0.0 1.1 8 ------- null}
h -t 1.008 -s 0 -d 1 -p cbr -e 210 -c 0 -i 12 -a 0 -x {0.0 1.1 -1 ------- null}
+ -t 1.008 -s 1 -d 0 -p cbr -e 210 -c 0 -i 13 -a 0 -x {1.0 0.1 4 ------- null}
- -t 1.008 -s 1 -d 0 -p cbr -e 210 -c 0 -i 13 -a 0 -x {1.0 0.1 4 ------- null}
h -t 1.008 -s 1 -d 0 -p cbr -e 210 -c 0 -i 13 -a 0 -x {1.0 0.1 -1 ------- null}
r -t 1.00884 -s 0 -d 1 -p cbr -e 210 -c 0 -i 9 -a 0 -x {0.0 1.1 6 ------- null}
r -t 1.00884 -s 1 -d 0 -p cbr -e 210 -c 0 -i 10 -a 0 -x {1.0 0.1 3 ------- null}
+ -t 1.009 -s 0 -d 1 -p cbr -e 210 -c 0 -i 14 -a 0 -x {0.0 1.1 9 ------- null}
- -t 1.009 -s 0 -d 1 -p cbr -e 210 -c 0 -i 14 -a 0 -x {0.0 1.1 9 ------- null}
h -t 1.009 -s 0 -d 1 -p cbr -e 210 -c 0 -i 14 -a 0 -x {0.0 1.1 -1 ------- null}
r -t 1.00984 -s 0 -d 1 -p cbr -e 210 -c 0 -i 11 -a 0 -x {0.0 1.1 7 ------- null}
+ -t 1.01 -s 0 -d 1 -p cbr -e 210 -c 0 -i 15 -a 0 -x {0.0 1.1 10 ------- null}
- -t 1.01 -s 0 -d 1 -p cbr -e 210 -c 0 -i 15 -a 0 -x {0.0 1.1 10 ------- null}
h -t 1.01 -s 0 -d 1 -p cbr -e 210 -c 0 -i 15 -a 0 -x {0.0 1.1 -1 ------- null}
+ -t 1.01 -s 1 -d 0 -p cbr -e 210 -c 0 -i 16 -a 0 -x {1.0 0.1 5 ------- null}
- -t 1.01 -s 1 -d 0 -p cbr -e 210 -c 0 -i 16 -a 0 -x {1.0 0.1 5 ------- null}
h -t 1.01 -s 1 -d 0 -p cbr -e 210 -c 0 -i 16 -a 0 -x {1.0 0.1 -1 ------- null}
r -t 1.01084 -s 0 -d 1 -p cbr -e 210 -c 0 -i 12 -a 0 -x {0.0 1.1 8 ------- null}
r -t 1.01084 -s 1 -d 0 -p cbr -e 210 -c 0 -i 13 -a 0 -x {1.0 0.1 4 ------- null}
+ -t 1.011 -s 0 -d 1 -p cbr -e 210 -c 0 -i 17 -a 0 -x {0.0 1.1 11 ------- null}
- -t 1.011 -s 0 -d 1 -p cbr -e 210 -c 0 -i 17 -a 0 -x {0.0 1.1 11 ------- null}
h -t 1.011 -s 0 -d 1 -p cbr -e 210 -c 0 -i 17 -a 0 -x {0.0 1.1 -1 ------- null}
r -t 1.01184 -s 0 -d 1 -p cbr -e 210 -c 0 -i 14 -a 0 -x {0.0 1.1 9 ------- null}
+ -t 1.012 -s 0 -d 1 -p cbr -e 210 -c 0 -i 18 -a 0 -x {0.0 1.1 12 ------- null}
- -t 1.012 -s 0 -d 1 -p cbr -e 210 -c 0 -i 18 -a 0 -x {0.0 1.1 12 ------- null}
h -t 1.012 -s 0 -d 1 -p cbr -e 210 -c 0 -i 18 -a 0 -x {0.0 1.1 -1 ------- null}
+ -t 1.012 -s 1 -d 0 -p cbr -e 210 -c 0 -i 19 -a 0 -x {1.0 0.1 6 ------- null}
- -t 1.012 -s 1 -d 0 -p cbr -e 210 -c 0 -i 19 -a 0 -x {1.0 0.1 6 ------- null}
h -t 1.012 -s 1 -d 0 -p cbr -e 210 -c 0 -i 19 -a 0 -x {1.0 0.1 -1 ------- null}
r -t 1.01284 -s 0 -d 1 -p cbr -e 210 -c 0 -i 15 -a 0 -x {0.0 1.1 10 ------- null}
r -t 1.01284 -s 1 -d 0 -p cbr -e 210 -c 0 -i 16 -a 0 -x {1.0 0.1 5 ------- null}
+ -t 1.013 -s 0 -d 1 -p cbr -e 210 -c 0 -i 20 -a 0 -x {0.0 1.1 13 ------- null}
- -t 1.013 -s 0 -d 1 -p cbr -e 210 -c 0 -i 20 -a 0 -x {0.0 1.1 13 ------- null}
h -t 1.013 -s 0 -d 1 -p cbr -e 210 -c 0 -i 20 -a 0 -x {0.0 1.1 -1 ------- null}
r -t 1.01384 -s 0 -d 1 -p cbr -e 210 -c 0 -i 17 -a 0 -x {0.0 1.1 11 ------- null}
+ -t 1.014 -s 0 -d 1 -p cbr -e 210 -c 0 -i 21 -a 0 -x {0.0 1.1 14 ------- null}
- -t 1.014 -s 0 -d 1 -p cbr -e 210 -c 0 -i 21 -a 0 -x {0.0 1.1 14 ------- null}
h -t 1.014 -s 0 -d 1 -p cbr -e 210 -c 0 -i 21 -a 0 -x {0.0 1.1 -1 ------- null}
+ -t 1.014 -s 1 -d 0 -p cbr -e 210 -c 0 -i 22 -a 0 -x {1.0 0.1 7 ------- null}
- -t 1.014 -s 1 -d 0 -p cbr -e 210 -c 0 -i 22 -a 0 -x {1.0 0.1 7 ------- null}
h -t 1.014 -s 1 -d 0 -p cbr -e 210 -c 0 -i 22 -a 0 -x {1.0 0.1 -1 ------- null}
r -t 1.01484 -s 0 -d 1 -p cbr -e 210 -c 0 -i 18 -a 0 -x {0.0 1.1 12 ------- null}
r -t 1.01484 -s 1 -d 0 -p cbr -e 210 -c 0 -i 19 -a 0 -x {1.0 0.1 6 ------- null}
+ -t 1.015 -s 0 -d 1 -p cbr -e 210 -c 0 -i 23 -a 0 -x {0.0 1.1 15 ------- null}
- -t 1.015 -s 0 -d 1 -p cbr -e 210 -c 0 -i 23 -a 0 -x {0.0 1.1 15 ------- null}
h -t 1.015 -s 0 -d 1 -p cbr -e 210 -c 0 -i 23 -a 0 -x {0.0 1.1 -1 ------- null}
r -t 1.01584 -s 0 -d 1 -p cbr -e 210 -c 0 -i 20 -a 0 -x {0.0 1.1 13 ------- null}
+ -t 1.016 -s 0 -d 1 -p cbr -e 210 -c 0 -i 24 -a 0 -x {0.0 1.1 16 ------- null}
- -t 1.016 -s 0 -d 1 -p cbr -e 210 -c 0 -i 24 -a 0 -x {0.0 1.1 16 ------- null}
h -t 1.016 -s 0 -d 1 -p cbr -e 210 -c 0 -i 24 -a 0 -x {0.0 1.1 -1 ------- null}
+ -t 1.016 -s 1 -d 0 -p cbr -e 210 -c 0 -i 25 -a 0 -x {1.0 0.1 8 ------- null}
- -t 1.016 -s 1 -d 0 -p cbr -e 210 -c 0 -i 25 -a 0 -x {1.0 0.1 8 ------- null}
h -t 1.016 -s 1 -d 0 -p cbr -e 210 -c 0 -i 25 -a 0 -x {1.0 0.1 -1 ------- null}
r -t 1.01684 -s 0 -d 1 -p cbr -e 210 -c 0 -i 21 -a 0 -x {0.0 1.1 14 ------- null}
r -t 1.01684 -s 1 -d 0 -p cbr -e 210 -c 0 -i 22 -a 0 -x {1.0 0.1 7 ------- null}
+ -t 1.017 -s 0 -d 1 -p cbr -e 210 -c 0 -i 26 -a 0 -x {0.0 1.1 17 ------- null}
- -t 1.017 -s 0 -d 1 -p cbr -e 210 -c 0 -i 26 -a 0 -x {0.0 1.1 17 ------- null}
h -t 1.017 -s 0 -d 1 -p cbr -e 210 -c 0 -i 26 -a 0 -x {0.0 1.1 -1 ------- null}
r -t 1.01784 -s 0 -d 1 -p cbr -e 210 -c 0 -i 23 -a 0 -x {0.0 1.1 15 ------- null}
+ -t 1.018 -s 0 -d 1 -p cbr -e 210 -c 0 -i 27 -a 0 -x {0.0 1.1 18 ------- null}
- -t 1.018 -s 0 -d 1 -p cbr -e 210 -c 0 -i 27 -a 0 -x {0.0 1.1 18 ------- null}
h -t 1.018 -s 0 -d 1 -p cbr -e 210 -c 0 -i 27 -a 0 -x {0.0 1.1 -1 ------- null}
+ -t 1.018 -s 1 -d 0 -p cbr -e 210 -c 0 -i 28 -a 0 -x {1.0 0.1 9 ------- null}
- -t 1.018 -s 1 -d 0 -p cbr -e 210 -c 0 -i 28 -a 0 -x {1.0 0.1 9 ------- null}
h -t 1.018 -s 1 -d 0 -p cbr -e 210 -c 0 -i 28 -a 0 -x {1.0 0.1 -1 ------- null}
r -t 1.01884 -s 0 -d 1 -p cbr -e 210 -c 0 -i 24 -a 0 -x {0.0 1.1 16 ------- null}
r -t 1.01884 -s 1 -d 0 -p cbr -e 210 -c 0 -i 25 -a 0 -x {1.0 0.1 8 ------- null}
+ -t 1.019 -s 0 -d 1 -p cbr -e 210 -c 0 -i 29 -a 0 -x {0.0 1.1 19 ------- null}
- -t 1.019 -s 0 -d 1 -p cbr -e 210 -c 0 -i 29 -a 0 -x {0.0 1.1 19 ------- null}
h -t 1.019 -s 0 -d 1 -p cbr -e 210 -c 0 -i 29 -a 0 -x {0.0 1.1 -1 ------- null}
r -t 1.01984 -s 0 -d 1 -p cbr -e 210 -c 0 -i 26 -a 0 -x {0.0 1.1 17 ------- null}
+ -t 1.02 -s 0 -d 1 -p cbr -e 210 -c 0 -i 30 -a 0 -x {0.0 1.1 20 ------- null}
- -t 1.02 -s 0 -d 1 -p cbr -e 210 -c 0 -i 30 -a 0 -x {0.0 1.1 20 ------- null}
h -t 1.02 -s 0 -d 1 -p cbr -e 210 -c 0 -i 30 -a 0 -x {0.0 1.1 -1 ------- null}
+ -t 1.02 -s 1 -d 0 -p cbr -e 210 -c 0 -i 31 -a 0 -x {1.0 0.1 10 ------- null}
- -t 1.02 -s 1 -d 0 -p cbr -e 210 -c 0 -i 31 -a 0 -x {1.0 0.1 10 ------- null}
h -t 1.02 -s 1 -d 0 -p cbr -e 210 -c 0 -i 31 -a 0 -x {1.0 0.1 -1 ------- null}
r -t 1.02084 -s 0 -d 1 -p cbr -e 210 -c 0 -i 27 -a 0 -x {0.0 1.1 18 ------- null}
r -t 1.02084 -s 1 -d 0 -p cbr -e 210 -c 0 -i 28 -a 0 -x {1.0 0.1 9 ------- null}
+ -t 1.021 -s 0 -d 1 -p cbr -e 210 -c 0 -i 32 -a 0 -x {0.0 1.1 21 ------- null}
- -t 1.021 -s 0 -d 1 -p cbr -e 210 -c 0 -i 32 -a 0 -x {0.0 1.1 21 ------- null}
h -t 1.021 -s 0 -d 1 -p cbr -e 210 -c 0 -i 32 -a 0 -x {0.0 1.1 -1 ------- null}
r -t 1.02184 -s 0 -d 1 -p cbr -e 210 -c 0 -i 29 -a 0 -x {0.0 1.1 19 ------- null}
+ -t 1.022 -s 0 -d 1 -p cbr -e 210 -c 0 -i 33 -a 0 -x {0.0 1.1 22 ------- null}
- -t 1.022 -s 0 -d 1 -p cbr -e 210 -c 0 -i 33 -a 0 -x {0.0 1.1 22 ------- null}
h -t 1.022 -s 0 -d 1 -p cbr -e 210 -c 0 -i 33 -a 0 -x {0.0 1.1 -1 ------- null}
+ -t 1.022 -s 1 -d 0 -p cbr -e 210 -c 0 -i 34 -a 0 -x {1.0 0.1 11 ------- null}
- -t 1.022 -s 1 -d 0 -p cbr -e 210 -c 0 -i 34 -a 0 -x {1.0 0.1 11 ------- null}
h -t 1.022 -s 1 -d 0 -p cbr -e 210 -c 0 -i 34 -a 0 -x {1.0 0.1 -1 ------- null}
r -t 1.02284 -s 0 -d 1 -p cbr -e 210 -c 0 -i 30 -a 0 -x {0.0 1.1 20 ------- null}
r -t 1.02284 -s 1 -d 0 -p cbr -e 210 -c 0 -i 31 -a 0 -x {1.0 0.1 10 ------- null}
+ -t 1.023 -s 0 -d 1 -p cbr -e 210 -c 0 -i 35 -a 0 -x {0.0 1.1 23 ------- null}
- -t 1.023 -s 0 -d 1 -p cbr -e 210 -c 0 -i 35 -a 0 -x {0.0 1.1 23 ------- null}
h -t 1.023 -s 0 -d 1 -p cbr -e 210 -c 0 -i 35 -a 0 -x {0.0 1.1 -1 ------- null}
r -t 1.02384 -s 0 -d 1 -p cbr -e 210 -c 0 -i 32 -a 0 -x {0.0 1.1 21 ------- null}
+ -t 1.024 -s 0 -d 1 -p cbr -e 210 -c 0 -i 36 -a 0 -x {0.0 1.1 24 ------- null}
- -t 1.024 -s 0 -d 1 -p cbr -e 210 -c 0 -i 36 -a 0 -x {0.0 1.1 24 ------- null}
h -t 1.024 -s 0 -d 1 -p cbr -e 210 -c 0 -i 36 -a 0 -x {0.0 1.1 -1 ------- null}
+ -t 1.024 -s 1 -d 0 -p cbr -e 210 -c 0 -i 37 -a 0 -x {1.0 0.1 12 ------- null}
- -t 1.024 -s 1 -d 0 -p cbr -e 210 -c 0 -i 37 -a 0 -x {1.0 0.1 12 ------- null}
h -t 1.024 -s 1 -d 0 -p cbr -e 210 -c 0 -i 37 -a 0 -x {1.0 0.1 -1 ------- null}
r -t 1.02484 -s 0 -d 1 -p cbr -e 210 -c 0 -i 33 -a 0 -x {0.0 1.1 22 ------- null}
r -t 1.02484 -s 1 -d 0 -p cbr -e 210 -c 0 -i 34 -a 0 -x {1.0 0.1 11 ------- null}
+ -t 1.025 -s 0 -d 1 -p cbr -e 210 -c 0 -i 38 -a 0 -x {0.0 1.1 25 ------- null}
- -t 1.025 -s 0 -d 1 -p cbr -e 210 -c 0 -i 38 -a 0 -x {0.0 1.1 25 ------- null}
h -t 1.025 -s 0 -d 1 -p cbr -e 210 -c 0 -i 38 -a 0 -x {0.0 1.1 -1 ------- null}
r -t 1.02584 -s 0 -d 1 -p cbr -e 210 -c 0 -i 35 -a 0 -x {0.0 1.1 23 ------- null}
+ -t 1.026 -s 0 -d 1 -p cbr -e 210 -c 0 -i 39 -a 0 -x {0.0 1.1 26 ------- null}
- -t 1.026 -s 0 -d 1 -p cbr -e 210 -c 0 -i 39 -a 0 -x {0.0 1.1 26 ------- null}
h -t 1.026 -s 0 -d 1 -p cbr -e 210 -c 0 -i 39 -a 0 -x {0.0 1.1 -1 ------- null}
+ -t 1.026 -s 1 -d 0 -p cbr -e 210 -c 0 -i 40 -a 0 -x {1.0 0.1 13 ------- null}
- -t 1.026 -s 1 -d 0 -p cbr -e 210 -c 0 -i 40 -a 0 -x {1.0 0.1 13 ------- null}
h -t 1.026 -s 1 -d 0 -p cbr -e 210 -c 0 -i 40 -a 0 -x {1.0 0.1 -1 ------- null}
r -t 1.02684 -s 0 -d 1 -p cbr -e 210 -c 0 -i 36 -a 0 -x {0.0 1.1 24 ------- null}
r -t 1.02684 -s 1 -d 0 -p cbr -e 210 -c 0 -i 37 -a 0 -x {1.0 0.1 12 ------- null}
+ -t 1.027 -s 0 -d 1 -p cbr -e 210 -c 0 -i 41 -a 0 -x {0.0 1.1 27 ------- null}
- -t 1.027 -s 0 -d 1 -p cbr -e 210 -c 0 -i 41 -a 0 -x {0.0 1.1 27 ------- null}
h -t 1.027 -s 0 -d 1 -p cbr -e 210 -c 0 -i 41 -a 0 -x {0.0 1.1 -1 ------- null}
r -t 1.02784 -s 0 -d 1 -p cbr -e 210 -c 0 -i 38 -a 0 -x {0.0 1.1 25 ------- null}
+ -t 1.028 -s 0 -d 1 -p cbr -e 210 -c 0 -i 42 -a 0 -x {0.0 1.1 28 ------- null}
- -t 1.028 -s 0 -d 1 -p cbr -e 210 -c 0 -i 42 -a 0 -x {0.0 1.1 28 ------- null}
h -t 1.028 -s 0 -d 1 -p cbr -e 210 -c 0 -i 42 -a 0 -x {0.0 1.1 -1 ------- null}
+ -t 1.028 -s 1 -d 0 -p cbr -e 210 -c 0 -i 43 -a 0 -x {1.0 0.1 14 ------- null}
- -t 1.028 -s 1 -d 0 -p cbr -e 210 -c 0 -i 43 -a 0 -x {1.0 0.1 14 ------- null}
h -t 1.028 -s 1 -d 0 -p cbr -e 210 -c 0 -i 43 -a 0 -x {1.0 0.1 -1 ------- null}
r -t 1.02884 -s 0 -d 1 -p cbr -e 210 -c 0 -i 39 -a 0 -x {0.0 1.1 26 ------- null}
r -t 1.02884 -s 1 -d 0 -p cbr -e 210 -c 0 -i 40 -a 0 -x {1.0 0.1 13 ------- null}
+ -t 1.029 -s 0 -d 1 -p cbr -e 210 -c 0 -i 44 -a 0 -x {0.0 1.1 29 ------- null}
- -t 1.029 -s 0 -d 1 -p cbr -e 210 -c 0 -i 44 -a 0 -x {0.0 1.1 29 ------- null}
h -t 1.029 -s 0 -d 1 -p cbr -e 210 -c 0 -i 44 -a 0 -x {0.0 1.1 -1 ------- null}
r -t 1.02984 -s 0 -d 1 -p cbr -e 210 -c 0 -i 41 -a 0 -x {0.0 1.1 27 ------- null}
+ -t 1.03 -s 0 -d 1 -p cbr -e 210 -c 0 -i 45 -a 0 -x {0.0 1.1 30 ------- null}
- -t 1.03 -s 0 -d 1 -p cbr -e 210 -c 0 -i 45 -a 0 -x {0.0 1.1 30 ------- null}
h -t 1.03 -s 0 -d 1 -p cbr -e 210 -c 0 -i 45 -a 0 -x {0.0 1.1 -1 ------- null}
+ -t 1.03 -s 1 -d 0 -p cbr -e 210 -c 0 -i 46 -a 0 -x {1.0 0.1 15 ------- null}
- -t 1.03 -s 1 -d 0 -p cbr -e 210 -c 0 -i 46 -a 0 -x {1.0 0.1 15 ------- null}
h -t 1.03 -s 1 -d 0 -p cbr -e 210 -c 0 -i 46 -a 0 -x {1.0 0.1 -1 ------- null}
r -t 1.03084 -s 0 -d 1 -p cbr -e 210 -c 0 -i 42 -a 0 -x {0.0 1.1 28 ------- null}
r -t 1.03084 -s 1 -d 0 -p cbr -e 210 -c 0 -i 43 -a 0 -x {1.0 0.1 14 ------- null}
+ -t 1.031 -s 0 -d 1 -p cbr -e 210 -c 0 -i 47 -a 0 -x {0.0 1.1 31 ------- null}
- -t 1.031 -s 0 -d 1 -p cbr -e 210 -c 0 -i 47 -a 0 -x {0.0 1.1 31 ------- null}
h -t 1.031 -s 0 -d 1 -p cbr -e 210 -c 0 -i 47 -a 0 -x {0.0 1.1 -1 ------- null}
r -t 1.03184 -s 0 -d 1 -p cbr -e 210 -c 0 -i 44 -a 0 -x {0.0 1.1 29 ------- null}
+ -t 1.032 -s 0 -d 1 -p cbr -e 210 -c 0 -i 48 -a 0 -x {0.0 1.1 32 ------- null}
- -t 1.032 -s 0 -d 1 -p cbr -e 210 -c 0 -i 48 -a 0 -x {0.0 1.1 32 ------- null}
h -t 1.032 -s 0 -d 1 -p cbr -e 210 -c 0 -i 48 -a 0 -x {0.0 1.1 -1 ------- null}
+ -t 1.032 -s 1 -d 0 -p cbr -e 210 -c 0 -i 49 -a 0 -x {1.0 0.1 16 ------- null}
- -t 1.032 -s 1 -d 0 -p cbr -e 210 -c 0 -i 49 -a 0 -x {1.0 0.1 16 ------- null}
h -t 1.032 -s 1 -d 0 -p cbr -e 210 -c 0 -i 49 -a 0 -x {1.0 0.1 -1 ------- null}
r -t 1.03284 -s 0 -d 1 -p cbr -e 210 -c 0 -i 45 -a 0 -x {0.0 1.1 30 ------- null}
r -t 1.03284 -s 1 -d 0 -p cbr -e 210 -c 0 -i 46 -a 0 -x {1.0 0.1 15 ------- null}
+ -t 1.033 -s 0 -d 1 -p cbr -e 210 -c 0 -i 50 -a 0 -x {0.0 1.1 33 ------- null}
- -t 1.033 -s 0 -d 1 -p cbr -e 210 -c 0 -i 50 -a 0 -x {0.0 1.1 33 ------- null}
h -t 1.033 -s 0 -d 1 -p cbr -e 210 -c 0 -i 50 -a 0 -x {0.0 1.1 -1 ------- null}
r -t 1.03384 -s 0 -d 1 -p cbr -e 210 -c 0 -i 47 -a 0 -x {0.0 1.1 31 ------- null}
+ -t 1.034 -s 0 -d 1 -p cbr -e 210 -c 0 -i 51 -a 0 -x {0.0 1.1 34 ------- null}
- -t 1.034 -s 0 -d 1 -p cbr -e 210 -c 0 -i 51 -a 0 -x {0.0 1.1 34 ------- null}
h -t 1.034 -s 0 -d 1 -p cbr -e 210 -c 0 -i 51 -a 0 -x {0.0 1.1 -1 ------- null}
+ -t 1.034 -s 1 -d 0 -p cbr -e 210 -c 0 -i 52 -a 0 -x {1.0 0.1 17 ------- null}
- -t 1.034 -s 1 -d 0 -p cbr -e 210 -c 0 -i 52 -a 0 -x {1.0 0.1 17 ------- null}
h -t 1.034 -s 1 -d 0 -p cbr -e 210 -c 0 -i 52 -a 0 -x {1.0 0.1 -1 ------- null}
r -t 1.03484 -s 0 -d 1 -p cbr -e 210 -c 0 -i 48 -a 0 -x {0.0 1.1 32 ------- null}
r -t 1.03484 -s 1 -d 0 -p cbr -e 210 -c 0 -i 49 -a 0 -x {1.0 0.1 16 ------- null}
+ -t 1.035 -s 0 -d 1 -p cbr -e 210 -c 0 -i 53 -a 0 -x {0.0 1.1 35 ------- null}
- -t 1.035 -s 0 -d 1 -p cbr -e 210 -c 0 -i 53 -a 0 -x {0.0 1.1 35 ------- null}
h -t 1.035 -s 0 -d 1 -p cbr -e 210 -c 0 -i 53 -a 0 -x {0.0 1.1 -1 ------- null}
r -t 1.03584 -s 0 -d 1 -p cbr -e 210 -c 0 -i 50 -a 0 -x {0.0 1.1 33 ------- null}
+ -t 1.036 -s 0 -d 1 -p cbr -e 210 -c 0 -i 54 -a 0 -x {0.0 1.1 36 ------- null}
- -t 1.036 -s 0 -d 1 -p cbr -e 210 -c 0 -i 54 -a 0 -x {0.0 1.1 36 ------- null}
h -t 1.036 -s 0 -d 1 -p cbr -e 210 -c 0 -i 54 -a 0 -x {0.0 1.1 -1 ------- null}
+ -t 1.036 -s 1 -d 0 -p cbr -e 210 -c 0 -i 55 -a 0 -x {1.0 0.1 18 ------- null}
- -t 1.036 -s 1 -d 0 -p cbr -e 210 -c 0 -i 55 -a 0 -x {1.0 0.1 18 ------- null}
h -t 1.036 -s 1 -d 0 -p cbr -e 210 -c 0 -i 55 -a 0 -x {1.0 0.1 -1 ------- null}
r -t 1.03684 -s 0 -d 1 -p cbr -e 210 -c 0 -i 51 -a 0 -x {0.0 1.1 34 ------- null}
r -t 1.03684 -s 1 -d 0 -p cbr -e 210 -c 0 -i 52 -a 0 -x {1.0 0.1 17 ------- null}
+ -t 1.037 -s 0 -d 1 -p cbr -e 210 -c 0 -i 56 -a 0 -x {0.0 1.1 37 ------- null}
- -t 1.037 -s 0 -d 1 -p cbr -e 210 -c 0 -i 56 -a 0 -x {0.0 1.1 37 ------- null}
h -t 1.037 -s 0 -d 1 -p cbr -e 210 -c 0 -i 56 -a 0 -x {0.0 1.1 -1 ------- null}
r -t 1.03784 -s 0 -d 1 -p cbr -e 210 -c 0 -i 53 -a 0 -x {0.0 1.1 35 ------- null}
+ -t 1.038 -s 0 -d 1 -p cbr -e 210 -c 0 -i 57 -a 0 -x {0.0 1.1 38 ------- null}
- -t 1.038 -s 0 -d 1 -p cbr -e 210 -c 0 -i 57 -a 0 -x {0.0 1.1 38 ------- null}
h -t 1.038 -s 0 -d 1 -p cbr -e 210 -c 0 -i 57 -a 0 -x {0.0 1.1 -1 ------- null}
+ -t 1.038 -s 1 -d 0 -p cbr -e 210 -c 0 -i 58 -a 0 -x {1.0 0.1 19 ------- null}
- -t 1.038 -s 1 -d 0 -p cbr -e 210 -c 0 -i 58 -a 0 -x {1.0 0.1 19 ------- null}
h -t 1.038 -s 1 -d 0 -p cbr -e 210 -c 0 -i 58 -a 0 -x {1.0 0.1 -1 ------- null}
r -t 1.03884 -s 0 -d 1 -p cbr -e 210 -c 0 -i 54 -a 0 -x {0.0 1.1 36 ------- null}
r -t 1.03884 -s 1 -d 0 -p cbr -e 210 -c 0 -i 55 -a 0 -x {1.0 0.1 18 ------- null}
+ -t 1.039 -s 0 -d 1 -p cbr -e 210 -c 0 -i 59 -a 0 -x {0.0 1.1 39 ------- null}
- -t 1.039 -s 0 -d 1 -p cbr -e 210 -c 0 -i 59 -a 0 -x {0.0 1.1 39 ------- null}
h -t 1.039 -s 0 -d 1 -p cbr -e 210 -c 0 -i 59 -a 0 -x {0.0 1.1 -1 ------- null}
r -t 1.03984 -s 0 -d 1 -p cbr -e 210 -c 0 -i 56 -a 0 -x {0.0 1.1 37 ------- null}
+ -t 1.04 -s 0 -d 1 -p cbr -e 210 -c 0 -i 60 -a 0 -x {0.0 1.1 40 ------- null}
- -t 1.04 -s 0 -d 1 -p cbr -e 210 -c 0 -i 60 -a 0 -x {0.0 1.1 40 ------- null}
h -t 1.04 -s 0 -d 1 -p cbr -e 210 -c 0 -i 60 -a 0 -x {0.0 1.1 -1 ------- null}
+ -t 1.04 -s 1 -d 0 -p cbr -e 210 -c 0 -i 61 -a 0 -x {1.0 0.1 20 ------- null}
- -t 1.04 -s 1 -d 0 -p cbr -e 210 -c 0 -i 61 -a 0 -x {1.0 0.1 20 ------- null}
h -t 1.04 -s 1 -d 0 -p cbr -e 210 -c 0 -i 61 -a 0 -x {1.0 0.1 -1 ------- null}
r -t 1.04084 -s 0 -d 1 -p cbr -e 210 -c 0 -i 57 -a 0 -x {0.0 1.1 38 ------- null}
r -t 1.04084 -s 1 -d 0 -p cbr -e 210 -c 0 -i 58 -a 0 -x {1.0 0.1 19 ------- null}
+ -t 1.041 -s 0 -d 1 -p cbr -e 210 -c 0 -i 62 -a 0 -x {0.0 1.1 41 ------- null}
- -t 1.041 -s 0 -d 1 -p cbr -e 210 -c 0 -i 62 -a 0 -x {0.0 1.1 41 ------- null}
h -t 1.041 -s 0 -d 1 -p cbr -e 210 -c 0 -i 62 -a 0 -x {0.0 1.1 -1 ------- null}
r -t 1.04184 -s 0 -d 1 -p cbr -e 210 -c 0 -i 59 -a 0 -x {0.0 1.1 39 ------- null}
+ -t 1.042 -s 0 -d 1 -p cbr -e 210 -c 0 -i 63 -a 0 -x {0.0 1.1 42 ------- null}
- -t 1.042 -s 0 -d 1 -p cbr -e 210 -c 0 -i 63 -a 0 -x {0.0 1.1 42 ------- null}
h -t 1.042 -s 0 -d 1 -p cbr -e 210 -c 0 -i 63 -a 0 -x {0.0 1.1 -1 ------- null}
+ -t 1.042 -s 1 -d 0 -p cbr -e 210 -c 0 -i 64 -a 0 -x {1.0 0.1 21 ------- null}
- -t 1.042 -s 1 -d 0 -p cbr -e 210 -c 0 -i 64 -a 0 -x {1.0 0.1 21 ------- null}
h -t 1.042 -s 1 -d 0 -p cbr -e 210 -c 0 -i 64 -a 0 -x {1.0 0.1 -1 ------- null}
r -t 1.04284 -s 0 -d 1 -p cbr -e 210 -c 0 -i 60 -a 0 -x {0.0 1.1 40 ------- null}
r -t 1.04284 -s 1 -d 0 -p cbr -e 210 -c 0 -i 61 -a 0 -x {1.0 0.1 20 ------- null}
+ -t 1.043 -s 0 -d 1 -p cbr -e 210 -c 0 -i 65 -a 0 -x {0.0 1.1 43 ------- null}
- -t 1.043 -s 0 -d 1 -p cbr -e 210 -c 0 -i 65 -a 0 -x {0.0 1.1 43 ------- null}
h -t 1.043 -s 0 -d 1 -p cbr -e 210 -c 0 -i 65 -a 0 -x {0.0 1.1 -1 ------- null}
r -t 1.04384 -s 0 -d 1 -p cbr -e 210 -c 0 -i 62 -a 0 -x {0.0 1.1 41 ------- null}
+ -t 1.044 -s 0 -d 1 -p cbr -e 210 -c 0 -i 66 -a 0 -x {0.0 1.1 44 ------- null}
- -t 1.044 -s 0 -d 1 -p cbr -e 210 -c 0 -i 66 -a 0 -x {0.0 1.1 44 ------- null}
h -t 1.044 -s 0 -d 1 -p cbr -e 210 -c 0 -i 66 -a 0 -x {0.0 1.1 -1 ------- null}
+ -t 1.044 -s 1 -d 0 -p cbr -e 210 -c 0 -i 67 -a 0 -x {1.0 0.1 22 ------- null}
- -t 1.044 -s 1 -d 0 -p cbr -e 210 -c 0 -i 67 -a 0 -x {1.0 0.1 22 ------- null}
h -t 1.044 -s 1 -d 0 -p cbr -e 210 -c 0 -i 67 -a 0 -x {1.0 0.1 -1 ------- null}
r -t 1.04484 -s 0 -d 1 -p cbr -e 210 -c 0 -i 63 -a 0 -x {0.0 1.1 42 ------- null}
r -t 1.04484 -s 1 -d 0 -p cbr -e 210 -c 0 -i 64 -a 0 -x {1.0 0.1 21 ------- null}
+ -t 1.045 -s 0 -d 1 -p cbr -e 210 -c 0 -i 68 -a 0 -x {0.0 1.1 45 ------- null}
- -t 1.045 -s 0 -d 1 -p cbr -e 210 -c 0 -i 68 -a 0 -x {0.0 1.1 45 ------- null}
h -t 1.045 -s 0 -d 1 -p cbr -e 210 -c 0 -i 68 -a 0 -x {0.0 1.1 -1 ------- null}
r -t 1.04584 -s 0 -d 1 -p cbr -e 210 -c 0 -i 65 -a 0 -x {0.0 1.1 43 ------- null}
+ -t 1.04599999999999 -s 0 -d 1 -p cbr -e 210 -c 0 -i 69 -a 0 -x {0.0 1.1 46 ------- null}
- -t 1.04599999999999 -s 0 -d 1 -p cbr -e 210 -c 0 -i 69 -a 0 -x {0.0 1.1 46 ------- null}
h -t 1.04599999999999 -s 0 -d 1 -p cbr -e 210 -c 0 -i 69 -a 0 -x {0.0 1.1 -1 ------- null}
+ -t 1.046 -s 1 -d 0 -p cbr -e 210 -c 0 -i 70 -a 0 -x {1.0 0.1 23 ------- null}
- -t 1.046 -s 1 -d 0 -p cbr -e 210 -c 0 -i 70 -a 0 -x {1.0 0.1 23 ------- null}
h -t 1.046 -s 1 -d 0 -p cbr -e 210 -c 0 -i 70 -a 0 -x {1.0 0.1 -1 ------- null}
r -t 1.04684 -s 0 -d 1 -p cbr -e 210 -c 0 -i 66 -a 0 -x {0.0 1.1 44 ------- null}
r -t 1.04684 -s 1 -d 0 -p cbr -e 210 -c 0 -i 67 -a 0 -x {1.0 0.1 22 ------- null}
+ -t 1.04699999999999 -s 0 -d 1 -p cbr -e 210 -c 0 -i 71 -a 0 -x {0.0 1.1 47 ------- null}
- -t 1.04699999999999 -s 0 -d 1 -p cbr -e 210 -c 0 -i 71 -a 0 -x {0.0 1.1 47 ------- null}
h -t 1.04699999999999 -s 0 -d 1 -p cbr -e 210 -c 0 -i 71 -a 0 -x {0.0 1.1 -1 ------- null}
r -t 1.04783999999999 -s 0 -d 1 -p cbr -e 210 -c 0 -i 68 -a 0 -x {0.0 1.1 45 ------- null}
+ -t 1.04799999999999 -s 0 -d 1 -p cbr -e 210 -c 0 -i 72 -a 0 -x {0.0 1.1 48 ------- null}
- -t 1.04799999999999 -s 0 -d 1 -p cbr -e 210 -c 0 -i 72 -a 0 -x {0.0 1.1 48 ------- null}
h -t 1.04799999999999 -s 0 -d 1 -p cbr -e 210 -c 0 -i 72 -a 0 -x {0.0 1.1 -1 ------- null}
+ -t 1.048 -s 1 -d 0 -p cbr -e 210 -c 0 -i 73 -a 0 -x {1.0 0.1 24 ------- null}
- -t 1.048 -s 1 -d 0 -p cbr -e 210 -c 0 -i 73 -a 0 -x {1.0 0.1 24 ------- null}
h -t 1.048 -s 1 -d 0 -p cbr -e 210 -c 0 -i 73 -a 0 -x {1.0 0.1 -1 ------- null}
r -t 1.04883999999999 -s 0 -d 1 -p cbr -e 210 -c 0 -i 69 -a 0 -x {0.0 1.1 46 ------- null}
r -t 1.04884 -s 1 -d 0 -p cbr -e 210 -c 0 -i 70 -a 0 -x {1.0 0.1 23 ------- null}
+ -t 1.04899999999999 -s 0 -d 1 -p cbr -e 210 -c 0 -i 74 -a 0 -x {0.0 1.1 49 ------- null}
- -t 1.04899999999999 -s 0 -d 1 -p cbr -e 210 -c 0 -i 74 -a 0 -x {0.0 1.1 49 ------- null}
h -t 1.04899999999999 -s 0 -d 1 -p cbr -e 210 -c 0 -i 74 -a 0 -x {0.0 1.1 -1 ------- null}
r -t 1.04983999999999 -s 0 -d 1 -p cbr -e 210 -c 0 -i 71 -a 0 -x {0.0 1.1 47 ------- null}
+ -t 1.04999999999999 -s 0 -d 1 -p cbr -e 210 -c 0 -i 75 -a 0 -x {0.0 1.1 50 ------- null}
- -t 1.04999999999999 -s 0 -d 1 -p cbr -e 210 -c 0 -i 75 -a 0 -x {0.0 1.1 50 ------- null}
h -t 1.04999999999999 -s 0 -d 1 -p cbr -e 210 -c 0 -i 75 -a 0 -x {0.0 1.1 -1 ------- null}
+ -t 1.05 -s 1 -d 0 -p cbr -e 210 -c 0 -i 76 -a 0 -x {1.0 0.1 25 ------- null}
- -t 1.05 -s 1 -d 0 -p cbr -e 210 -c 0 -i 76 -a 0 -x {1.0 0.1 25 ------- null}
h -t 1.05 -s 1 -d 0 -p cbr -e 210 -c 0 -i 76 -a 0 -x {1.0 0.1 -1 ------- null}
r -t 1.05083999999999 -s 0 -d 1 -p cbr -e 210 -c 0 -i 72 -a 0 -x {0.0 1.1 48 ------- null}
r -t 1.05084 -s 1 -d 0 -p cbr -e 210 -c 0 -i 73 -a 0 -x {1.0 0.1 24 ------- null}
+ -t 1.05099999999999 -s 0 -d 1 -p cbr -e 210 -c 0 -i 77 -a 0 -x {0.0 1.1 51 ------- null}
- -t 1.05099999999999 -s 0 -d 1 -p cbr -e 210 -c 0 -i 77 -a 0 -x {0.0 1.1 51 ------- null}
h -t 1.05099999999999 -s 0 -d 1 -p cbr -e 210 -c 0 -i 77 -a 0 -x {0.0 1.1 -1 ------- null}
r -t 1.05183999999999 -s 0 -d 1 -p cbr -e 210 -c 0 -i 74 -a 0 -x {0.0 1.1 49 ------- null}
+ -t 1.05199999999999 -s 0 -d 1 -p cbr -e 210 -c 0 -i 78 -a 0 -x {0.0 1.1 52 ------- null}
- -t 1.05199999999999 -s 0 -d 1 -p cbr -e 210 -c 0 -i 78 -a 0 -x {0.0 1.1 52 ------- null}
h -t 1.05199999999999 -s 0 -d 1 -p cbr -e 210 -c 0 -i 78 -a 0 -x {0.0 1.1 -1 ------- null}
+ -t 1.052 -s 1 -d 0 -p cbr -e 210 -c 0 -i 79 -a 0 -x {1.0 0.1 26 ------- null}
- -t 1.052 -s 1 -d 0 -p cbr -e 210 -c 0 -i 79 -a 0 -x {1.0 0.1 26 ------- null}
h -t 1.052 -s 1 -d 0 -p cbr -e 210 -c 0 -i 79 -a 0 -x {1.0 0.1 -1 ------- null}
r -t 1.05283999999999 -s 0 -d 1 -p cbr -e 210 -c 0 -i 75 -a 0 -x {0.0 1.1 50 ------- null}
r -t 1.05284 -s 1 -d 0 -p cbr -e 210 -c 0 -i 76 -a 0 -x {1.0 0.1 25 ------- null}
+ -t 1.05299999999999 -s 0 -d 1 -p cbr -e 210 -c 0 -i 80 -a 0 -x {0.0 1.1 53 ------- null}
- -t 1.05299999999999 -s 0 -d 1 -p cbr -e 210 -c 0 -i 80 -a 0 -x {0.0 1.1 53 ------- null}
h -t 1.05299999999999 -s 0 -d 1 -p cbr -e 210 -c 0 -i 80 -a 0 -x {0.0 1.1 -1 ------- null}
r -t 1.05383999999999 -s 0 -d 1 -p cbr -e 210 -c 0 -i 77 -a 0 -x {0.0 1.1 51 ------- null}
+ -t 1.05399999999999 -s 0 -d 1 -p cbr -e 210 -c 0 -i 81 -a 0 -x {0.0 1.1 54 ------- null}
- -t 1.05399999999999 -s 0 -d 1 -p cbr -e 210 -c 0 -i 81 -a 0 -x {0.0 1.1 54 ------- null}
h -t 1.05399999999999 -s 0 -d 1 -p cbr -e 210 -c 0 -i 81 -a 0 -x {0.0 1.1 -1 ------- null}
+ -t 1.054 -s 1 -d 0 -p cbr -e 210 -c 0 -i 82 -a 0 -x {1.0 0.1 27 ------- null}
- -t 1.054 -s 1 -d 0 -p cbr -e 210 -c 0 -i 82 -a 0 -x {1.0 0.1 27 ------- null}
h -t 1.054 -s 1 -d 0 -p cbr -e 210 -c 0 -i 82 -a 0 -x {1.0 0.1 -1 ------- null}
r -t 1.05483999999999 -s 0 -d 1 -p cbr -e 210 -c 0 -i 78 -a 0 -x {0.0 1.1 52 ------- null}
r -t 1.05484 -s 1 -d 0 -p cbr -e 210 -c 0 -i 79 -a 0 -x {1.0 0.1 26 ------- null}
+ -t 1.05499999999999 -s 0 -d 1 -p cbr -e 210 -c 0 -i 83 -a 0 -x {0.0 1.1 55 ------- null}
- -t 1.05499999999999 -s 0 -d 1 -p cbr -e 210 -c 0 -i 83 -a 0 -x {0.0 1.1 55 ------- null}
h -t 1.05499999999999 -s 0 -d 1 -p cbr -e 210 -c 0 -i 83 -a 0 -x {0.0 1.1 -1 ------- null}
r -t 1.05583999999999 -s 0 -d 1 -p cbr -e 210 -c 0 -i 80 -a 0 -x {0.0 1.1 53 ------- null}
+ -t 1.05599999999999 -s 0 -d 1 -p cbr -e 210 -c 0 -i 84 -a 0 -x {0.0 1.1 56 ------- null}
- -t 1.05599999999999 -s 0 -d 1 -p cbr -e 210 -c 0 -i 84 -a 0 -x {0.0 1.1 56 ------- null}
h -t 1.05599999999999 -s 0 -d 1 -p cbr -e 210 -c 0 -i 84 -a 0 -x {0.0 1.1 -1 ------- null}
+ -t 1.056 -s 1 -d 0 -p cbr -e 210 -c 0 -i 85 -a 0 -x {1.0 0.1 28 ------- null}
- -t 1.056 -s 1 -d 0 -p cbr -e 210 -c 0 -i 85 -a 0 -x {1.0 0.1 28 ------- null}
h -t 1.056 -s 1 -d 0 -p cbr -e 210 -c 0 -i 85 -a 0 -x {1.0 0.1 -1 ------- null}
r -t 1.05683999999999 -s 0 -d 1 -p cbr -e 210 -c 0 -i 81 -a 0 -x {0.0 1.1 54 ------- null}
r -t 1.05684 -s 1 -d 0 -p cbr -e 210 -c 0 -i 82 -a 0 -x {1.0 0.1 27 ------- null}
+ -t 1.05699999999999 -s 0 -d 1 -p cbr -e 210 -c 0 -i 86 -a 0 -x {0.0 1.1 57 ------- null}
- -t 1.05699999999999 -s 0 -d 1 -p cbr -e 210 -c 0 -i 86 -a 0 -x {0.0 1.1 57 ------- null}
h -t 1.05699999999999 -s 0 -d 1 -p cbr -e 210 -c 0 -i 86 -a 0 -x {0.0 1.1 -1 ------- null}
r -t 1.05783999999999 -s 0 -d 1 -p cbr -e 210 -c 0 -i 83 -a 0 -x {0.0 1.1 55 ------- null}
+ -t 1.05799999999999 -s 0 -d 1 -p cbr -e 210 -c 0 -i 87 -a 0 -x {0.0 1.1 58 ------- null}
- -t 1.05799999999999 -s 0 -d 1 -p cbr -e 210 -c 0 -i 87 -a 0 -x {0.0 1.1 58 ------- null}
h -t 1.05799999999999 -s 0 -d 1 -p cbr -e 210 -c 0 -i 87 -a 0 -x {0.0 1.1 -1 ------- null}
+ -t 1.058 -s 1 -d 0 -p cbr -e 210 -c 0 -i 88 -a 0 -x {1.0 0.1 29 ------- null}
- -t 1.058 -s 1 -d 0 -p cbr -e 210 -c 0 -i 88 -a 0 -x {1.0 0.1 29 ------- null}
h -t 1.058 -s 1 -d 0 -p cbr -e 210 -c 0 -i 88 -a 0 -x {1.0 0.1 -1 ------- null}
r -t 1.05883999999999 -s 0 -d 1 -p cbr -e 210 -c 0 -i 84 -a 0 -x {0.0 1.1 56 ------- null}
r -t 1.05884 -s 1 -d 0 -p cbr -e 210 -c 0 -i 85 -a 0 -x {1.0 0.1 28 ------- null}
+ -t 1.05899999999999 -s 0 -d 1 -p cbr -e 210 -c 0 -i 89 -a 0 -x {0.0 1.1 59 ------- null}
- -t 1.05899999999999 -s 0 -d 1 -p cbr -e 210 -c 0 -i 89 -a 0 -x {0.0 1.1 59 ------- null}
h -t 1.05899999999999 -s 0 -d 1 -p cbr -e 210 -c 0 -i 89 -a 0 -x {0.0 1.1 -1 ------- null}
r -t 1.05983999999999 -s 0 -d 1 -p cbr -e 210 -c 0 -i 86 -a 0 -x {0.0 1.1 57 ------- null}
+ -t 1.05999999999999 -s 0 -d 1 -p cbr -e 210 -c 0 -i 90 -a 0 -x {0.0 1.1 60 ------- null}
- -t 1.05999999999999 -s 0 -d 1 -p cbr -e 210 -c 0 -i 90 -a 0 -x {0.0 1.1 60 ------- null}
h -t 1.05999999999999 -s 0 -d 1 -p cbr -e 210 -c 0 -i 90 -a 0 -x {0.0 1.1 -1 ------- null}
+ -t 1.06 -s 1 -d 0 -p cbr -e 210 -c 0 -i 91 -a 0 -x {1.0 0.1 30 ------- null}
- -t 1.06 -s 1 -d 0 -p cbr -e 210 -c 0 -i 91 -a 0 -x {1.0 0.1 30 ------- null}
h -t 1.06 -s 1 -d 0 -p cbr -e 210 -c 0 -i 91 -a 0 -x {1.0 0.1 -1 ------- null}