+ 1 0 1 cbr 210 ------- 0 0.0 1.1 0 0
- 1 0 1 cbr 210 ------- 0 0.0 1.1 0 0
+ 1 1 0 cbr 210 ------- 0 1.0 0.1 0 1
- 1 1 0 cbr 210 ------- 0 1.0 0.1 0 1
+ 1.001 0 1 cbr 210 ------- 0 0.0 1.1 1 2
- 1.001 0 1 cbr 210 ------- 0 0.0 1.1 1 2
+ 1.002 0 1 cbr 210 ------- 0 0.0 1.1 2 3
- 1.002 0 1 cbr 210 ------- 0 0.0 1.1 2 3
+ 1.002 1 0 cbr 210 ------- 0 1.0 0.1 1 4
- 1.002 1 0 cbr 210 ------- 0 1.0 0.1 1 4
r 1.00284 0 1 cbr 210 ------- 0 0.0 1.1 0 0
r 1.00284 1 0 cbr 210 ------- 0 1.0 0.1 0 1
+ 1.003 0 1 cbr 210 ------- 0 0.0 1.1 3 5
- 1.003 0 1 cbr 210 ------- 0 0.0 1.1 3 5
r 1.00384 0 1 cbr 210 ------- 0 0.0 1.1 1 2
+ 1.004 0 1 cbr 210 ------- 0 0.0 1.1 4 6
- 1.004 0 1 cbr 210 ------- 0 0.0 1.1 4 6
+ 1.004 1 0 cbr 210 ------- 0 1.0 0.1 2 7
- 1.004 1 0 cbr 210 ------- 0 1.0 0.1 2 7
r 1.00484 0 1 cbr 210 ------- 0 0.0 1.1 2 3
r 1.00484 1 0 cbr 210 ------- 0 1.0 0.1 1 4
+ 1.005 0 1 cbr 210 ------- 0 0.0 1.1 5 8
- 1.005 0 1 cbr 210 ------- 0 0.0 1.1 5 8
r 1.00584 0 1 cbr 210 ------- 0 0.0 1.1 3 5
+ 1.006 0 1 cbr 210 ------- 0 0.0 1.1 6 9
- 1.006 0 1 cbr 210 ------- 0 0.0 1.1 6 9
+ 1.006 1 0 cbr 210 ------- 0 1.0 0.1 3 10
- 1.006 1 0 cbr 210 ------- 0 1.0 0.1 3 10
r 1.00684 0 1 cbr 210 ------- 0 0.0 1.1 4 6
r 1.00684 1 0 cbr 210 ------- 0 1.0 0.1 2 7
+ 1.007 0 1 cbr 210 ------- 0 0.0 1.1 7 11
- 1.007 0 1 cbr 210 ------- 0 0.0 1.1 7 11
r 1.00784 0 1 cbr 210 ------- 0 0.0 1.1 5 8
+ 1.008 0 1 cbr 210 ------- 0 0.0 1.1 8 12
- 1.008 0 1 cbr 210 ------- 0 0.0 1.1 8 12
+ 1.008 1 0 cbr 210 ------- 0 1.0 0.1 4 13
- 1.008 1 0 cbr 210 ------- 0 1.0 0.1 4 13
r 1.00884 0 1 cbr 210 ------- 0 0.0 1.1 6 9
r 1.00884 1 0 cbr 210 ------- 0 1.0 0.1 3 10
+ 1.009 0 1 cbr 210 ------- 0 0.0 1.1 9 14
- 1.009 0 1 cbr 210 ------- 0 0.0 1.1 9 14
r 1.00984 0 1 cbr 210 ------- 0 0.0 1.1 7 11
+ 1.01 0 1 cbr 210 ------- 0 0.0 1.1 10 15
- 1.01 0 1 cbr 210 ------- 0 0.0 1.1 10 15
+ 1.01 1 0 cbr 210 ------- 0 1.0 0.1 5 16
- 1.01 1 0 cbr 210 ------- 0 1.0 0.1 5 16
r 1.01084 0 1 cbr 210 ------- 0 0.0 1.1 8 12
r 1.01084 1 0 cbr 210 ------- 0 1.0 0.1 4 13
+ 1.011 0 1 cbr 210 ------- 0 0.0 1.1 11 17
- 1.011 0 1 cbr 210 ------- 0 0.0 1.1 11 17
r 1.01184 0 1 cbr 210 ------- 0 0.0 1.1 9 14
+ 1.012 0 1 cbr 210 ------- 0 0.0 1.1 12 18
- 1.012 0 1 cbr 210 ------- 0 0.0 1.1 12 18
+ 1.012 1 0 cbr 210 ------- 0 1.0 0.1 6 19
- 1.012 1 0 cbr 210 ------- 0 1.0 0.1 6 19
r 1.01284 0 1 cbr 210 ------- 0 0.0 1.1 10 15
r 1.01284 1 0 cbr 210 ------- 0 1.0 0.1 5 16
+ 1.013 0 1 cbr 210 ------- 0 0.0 1.1 13 20
- 1.013 0 1 cbr 210 ------- 0 0.0 1.1 13 20
r 1.01384 0 1 cbr 210 ------- 0 0.0 1.1 11 17
+ 1.014 0 1 cbr 210 ------- 0 0.0 1.1 14 21
- 1.014 0 1 cbr 210 ------- 0 0.0 1.1 14 21
+ 1.014 1 0 cbr 210 ------- 0 1.0 0.1 7 22
- 1.014 1 0 cbr 210 ------- 0 1.0 0.1 7 22
r 1.01484 0 1 cbr 210 ------- 0 0.0 1.1 12 18
r 1.01484 1 0 cbr 210 ------- 0 1.0 0.1 6 19
+ 1.015 0 1 cbr 210 ------- 0 0.0 1.1 15 23
- 1.015 0 1 cbr 210 ------- 0 0.0 1.1 15 23
r 1.01584 0 1 cbr 210 ------- 0 0.0 1.1 13 20
+ 1.016 0 1 cbr 210 ------- 0 0.0 1.1 16 24
- 1.016 0 1 cbr 210 ------- 0 0.0 1.1 16 24
+ 1.016 1 0 cbr 210 ------- 0 1.0 0.1 8 25
- 1.016 1 0 cbr 210 ------- 0 1.0 0.1 8 25
r 1.01684 0 1 cbr 210 ------- 0 0.0 1.1 14 21
r 1.01684 1 0 cbr 210 ------- 0 1.0 0.1 7 22
+ 1.017 0 1 cbr 210 ------- 0 0.0 1.1 17 26
- 1.017 0 1 cbr 210 ------- 0 0.0 1.1 17 26
r 1.01784 0 1 cbr 210 ------- 0 0.0 1.1 15 23
+ 1.018 0 1 cbr 210 ------- 0 0.0 1.1 18 27
- 1.018 0 1 cbr 210 ------- 0 0.0 1.1 18 27
+ 1.018 1 0 cbr 210 ------- 0 1.0 0.1 9 28
- 1.018 1 0 cbr 210 ------- 0 1.0 0.1 9 28
r 1.01884 0 1 cbr 210 ------- 0 0.0 1.1 16 24
r 1.01884 1 0 cbr 210 ------- 0 1.0 0.1 8 25
+ 1.019 0 1 cbr 210 ------- 0 0.0 1.1 19 29
- 1.019 0 1 cbr 210 ------- 0 0.0 1.1 19 29
r 1.01984 0 1 cbr 210 ------- 0 0.0 1.1 17 26
+ 1.02 0 1 cbr 210 ------- 0 0.0 1.1 20 30
- 1.02 0 1 cbr 210 ------- 0 0.0 1.1 20 30
+ 1.02 1 0 cbr 210 ------- 0 1.0 0.1 10 31
- 1.02 1 0 cbr 210 ------- 0 1.0 0.1 10 31
r 1.02084 0 1 cbr 210 ------- 0 0.0 1.1 18 27
r 1.02084 1 0 cbr 210 ------- 0 1.0 0.1 9 28
+ 1.021 0 1 cbr 210 ------- 0 0.0 1.1 21 32
- 1.021 0 1 cbr 210 ------- 0 0.0 1.1 21 32
r 1.02184 0 1 cbr 210 ------- 0 0.0 1.1 19 29
+ 1.022 0 1 cbr 210 ------- 0 0.0 1.1 22 33
- 1.022 0 1 cbr 210 ------- 0 0.0 1.1 22 33
+ 1.022 1 0 cbr 210 ------- 0 1.0 0.1 11 34
- 1.022 1 0 cbr 210 ------- 0 1.0 0.1 11 34
r 1.02284 0 1 cbr 210 ------- 0 0.0 1.1 20 30
r 1.02284 1 0 cbr 210 ------- 0 1.0 0.1 10 31
+ 1.023 0 1 cbr 210 ------- 0 0.0 1.1 23 35
- 1.023 0 1 cbr 210 ------- 0 0.0 1.1 23 35
r 1.02384 0 1 cbr 210 ------- 0 0.0 1.1 21 32
+ 1.024 0 1 cbr 210 ------- 0 0.0 1.1 24 36
- 1.024 0 1 cbr 210 ------- 0 0.0 1.1 24 36
+ 1.024 1 0 cbr 210 ------- 0 1.0 0.1 12 37
- 1.024 1 0 cbr 210 ------- 0 1.0 0.1 12 37
r 1.02484 0 1 cbr 210 ------- 0 0.0 1.1 22 33
r 1.02484 1 0 cbr 210 ------- 0 1.0 0.1 11 34
+ 1.025 0 1 cbr 210 ------- 0 0.0 1.1 25 38
- 1.025 0 1 cbr 210 ------- 0 0.0 1.1 25 38
r 1.02584 0 1 cbr 210 ------- 0 0.0 1.1 23 35
+ 1.026 0 1 cbr 210 ------- 0 0.0 1.1 26 39
- 1.026 0 1 cbr 210 ------- 0 0.0 1.1 26 39
+ 1.026 1 0 cbr 210 ------- 0 1.0 0.1 13 40
- 1.026 1 0 cbr 210 ------- 0 1.0 0.1 13 40
r 1.02684 0 1 cbr 210 ------- 0 0.0 1.1 24 36
r 1.02684 1 0 cbr 210 ------- 0 1.0 0.1 12 37
+ 1.027 0 1 cbr 210 ------- 0 0.0 1.1 27 41
- 1.027 0 1 cbr 210 ------- 0 0.0 1.1 27 41
r 1.02784 0 1 cbr 210 ------- 0 0.0 1.1 25 38
+ 1.028 0 1 cbr 210 ------- 0 0.0 1.1 28 42
- 1.028 0 1 cbr 210 ------- 0 0.0 1.1 28 42
+ 1.028 1 0 cbr 210 ------- 0 1.0 0.1 14 43
- 1.028 1 0 cbr 210 ------- 0 1.0 0.1 14 43
r 1.02884 0 1 cbr 210 ------- 0 0.0 1.1 26 39
r 1.02884 1 0 cbr 210 ------- 0 1.0 0.1 13 40
+ 1.029 0 1 cbr 210 ------- 0 0.0 1.1 29 44
- 1.029 0 1 cbr 210 ------- 0 0.0 1.1 29 44
r 1.02984 0 1 cbr 210 ------- 0 0.0 1.1 27 41
+ 1.03 0 1 cbr 210 ------- 0 0.0 1.1 30 45
- 1.03 0 1 cbr 210 ------- 0 0.0 1.1 30 45
+ 1.03 1 0 cbr 210 ------- 0 1.0 0.1 15 46
- 1.03 1 0 cbr 210 ------- 0 1.0 0.1 15 46
r 1.03084 0 1 cbr 210 ------- 0 0.0 1.1 28 42
r 1.03084 1 0 cbr 210 ------- 0 1.0 0.1 14 43
+ 1.031 0 1 cbr 210 ------- 0 0.0 1.1 31 47
- 1.031 0 1 cbr 210 ------- 0 0.0 1.1 31 47
r 1.03184 0 1 cbr 210 ------- 0 0.0 1.1 29 44
+ 1.032 0 1 cbr 210 ------- 0 0.0 1.1 32 48
- 1.032 0 1 cbr 210 ------- 0 0.0 1.1 32 48
+ 1.032 1 0 cbr 210 ------- 0 1.0 0.1 16 49
- 1.032 1 0 cbr 210 ------- 0 1.0 0.1 16 49
r 1.03284 0 1 cbr 210 ------- 0 0.0 1.1 30 45
r 1.03284 1 0 cbr 210 ------- 0 1.0 0.1 15 46
+ 1.033 0 1 cbr 210 ------- 0 0.0 1.1 33 50
- 1.033 0 1 cbr 210 ------- 0 0.0 1.1 33 50
r 1.03384 0 1 cbr 210 ------- 0 0.0 1.1 31 47
+ 1.034 0 1 cbr 210 ------- 0 0.0 1.1 34 51
- 1.034 0 1 cbr 210 ------- 0 0.0 1.1 34 51
+ 1.034 1 0 cbr 210 ------- 0 1.0 0.1 17 52
- 1.034 1 0 cbr 210 ------- 0 1.0 0.1 17 52
r 1.03484 0 1 cbr 210 ------- 0 0.0 1.1 32 48
r 1.03484 1 0 cbr 210 ------- 0 1.0 0.1 16 49
+ 1.035 0 1 cbr 210 ------- 0 0.0 1.1 35 53
- 1.035 0 1 cbr 210 ------- 0 0.0 1.1 35 53
r 1.03584 0 1 cbr 210 ------- 0 0.0 1.1 33 50
+ 1.036 0 1 cbr 210 ------- 0 0.0 1.1 36 54
- 1.036 0 1 cbr 210 ------- 0 0.0 1.1 36 54
+ 1.036 1 0 cbr 210 ------- 0 1.0 0.1 18 55
- 1.036 1 0 cbr 210 ------- 0 1.0 0.1 18 55
r 1.03684 0 1 cbr 210 ------- 0 0.0 1.1 34 51
r 1.03684 1 0 cbr 210 ------- 0 1.0 0.1 17 52
+ 1.037 0 1 cbr 210 ------- 0 0.0 1.1 37 56
- 1.037 0 1 cbr 210 ------- 0 0.0 1.1 37 56
r 1.03784 0 1 cbr 210 ------- 0 0.0 1.1 35 53
+ 1.038 0 1 cbr 210 ------- 0 0.0 1.1 38 57
- 1.038 0 1 cbr 210 ------- 0 0.0 1.1 38 57
+ 1.038 1 0 cbr 210 ------- 0 1.0 0.1 19 58
- 1.038 1 0 cbr 210 ------- 0 1.0 0.1 19 58
r 1.03884 0 1 cbr 210 ------- 0 0.0 1.1 36 54
r 1.03884 1 0 cbr 210 ------- 0 1.0 0.1 18 55
+ 1.039 0 1 cbr 210 ------- 0 0.0 1.1 39 59
- 1.039 0 1 cbr 210 ------- 0 0.0 1.1 39 59
r 1.03984 0 1 cbr 210 ------- 0 0.0 1.1 37 56
+ 1.04 0 1 cbr 210 ------- 0 0.0 1.1 40 60
- 1.04 0 1 cbr 210 ------- 0 0.0 1.1 40 60
+ 1.04 1 0 cbr 210 ------- 0 1.0 0.1 20 61
- 1.04 1 0 cbr 210 ------- 0 1.0 0.1 20 61
r 1.04084 0 1 cbr 210 ------- 0 0.0 1.1 38 57
r 1.04084 1 0 cbr 210 ------- 0 1.0 0.1 19 58
+ 1.041 0 1 cbr 210 ------- 0 0.0 1.1 41 62
- 1.041 0 1 cbr 210 ------- 0 0.0 1.1 41 62
r 1.04184 0 1 cbr 210 ------- 0 0.0 1.1 39 59
+ 1.042 0 1 cbr 210 ------- 0 0.0 1.1 42 63
- 1.042 0 1 cbr 210 ------- 0 0.0 1.1 42 63
+ 1.042 1 0 cbr 210 ------- 0 1.0 0.1 21 64
- 1.042 1 0 cbr 210 ------- 0 1.0 0.1 21 64
r 1.04284 0 1 cbr 210 ------- 0 0.0 1.1 40 60
r 1.04284 1 0 cbr 210 ------- 0 1.0 0.1 20 61
+ 1.043 0 1 cbr 210 ------- 0 0.0 1.1 43 65
- 1.043 0 1 cbr 210 ------- 0 0.0 1.1 43 65
r 1.04384 0 1 cbr 210 ------- 0 0.0 1.1 41 62
+ 1.044 0 1 cbr 210 ------- 0 0.0 1.1 44 66
- 1.044 0 1 cbr 210 ------- 0 0.0 1.1 44 66
+ 1.044 1 0 cbr 210 ------- 0 1.0 0.1 22 67
- 1.044 1 0 cbr 210 ------- 0 1.0 0.1 22 67
r 1.04484 0 1 cbr 210 ------- 0 0.0 1.1 42 63
r 1.04484 1 0 cbr 210 ------- 0 1.0 0.1 21 64
+ 1.045 0 1 cbr 210 ------- 0 0.0 1.1 45 68
- 1.045 0 1 cbr 210 ------- 0 0.0 1.1 45 68
r 1.04584 0 1 cbr 210 ------- 0 0.0 1.1 43 65
+ 1.046 0 1 cbr 210 ------- 0 0.0 1.1 46 69
- 1.046 0 1 cbr 210 ------- 0 0.0 1.1 46 69
+ 1.046 1 0 cbr 210 ------- 0 1.0 0.1 23 70
- 1.046 1 0 cbr 210 ------- 0 1.0 0.1 23 70
r 1.04684 0 1 cbr 210 ------- 0 0.0 1.1 44 66
r 1.04684 1 0 cbr 210 ------- 0 1.0 0.1 22 67
+ 1.047 0 1 cbr 210 ------- 0 0.0 1.1 47 71
- 1.047 0 1 cbr 210 ------- 0 0.0 1.1 47 71
r 1.04784 0 1 cbr 210 ------- 0 0.0 1.1 45 68
+ 1.048 0 1 cbr 210 ------- 0 0.0 1.1 48 72
- 1.048 0 1 cbr 210 ------- 0 0.0 1.1 48 72
+ 1.048 1 0 cbr 210 ------- 0 1.0 0.1 24 73
- 1.048 1 0 cbr 210 ------- 0 1.0 0.1 24 73
r 1.04884 0 1 cbr 210 ------- 0 0.0 1.1 46 69
r 1.04884 1 0 cbr 210 ------- 0 1.0 0.1 23 70
+ 1.049 0 1 cbr 210 ------- 0 0.0 1.1 49 74
- 1.049 0 1 cbr 210 ------- 0 0.0 1.1 49 74
r 1.04984 0 1 cbr 210 ------- 0 0.0 1.1 47 71
+ 1.05 0 1 cbr 210 ------- 0 0.0 1.1 50 75
- 1.05 0 1 cbr 210 ------- 0 0.0 1.1 50 75
+ 1.05 1 0 cbr 210 ------- 0 1.0 0.1 25 76
- 1.05 1 0 cbr 210 ------- 0 1.0 0.1 25 76
r 1.05084 0 1 cbr 210 ------- 0 0.0 1.1 48 72
r 1.05084 1 0 cbr 210 ------- 0 1.0 0.1 24 73
+ 1.051 0 1 cbr 210 ------- 0 0.0 1.1 51 77
- 1.051 0 1 cbr 210 ------- 0 0.0 1.1 51 77
r 1.05184 0 1 cbr 210 ------- 0 0.0 1.1 49 74
+ 1.052 0 1 cbr 210 ------- 0 0.0 1.1 52 78
- 1.052 0 1 cbr 210 ------- 0 0.0 1.1 52 78
+ 1.052 1 0 cbr 210 ------- 0 1.0 0.1 26 79
- 1.052 1 0 cbr 210 ------- 0 1.0 0.1 26 79
r 1.05284 0 1 cbr 210 ------- 0 0.0 1.1 50 75
r 1.05284 1 0 cbr 210 ------- 0 1.0 0.1 25 76
+ 1.053 0 1 cbr 210 ------- 0 0.0 1.1 53 80
- 1.053 0 1 cbr 210 ------- 0 0.0 1.1 53 80
r 1.05384 0 1 cbr 210 ------- 0 0.0 1.1 51 77
+ 1.054 0 1 cbr 210 ------- 0 0.0 1.1 54 81
- 1.054 0 1 cbr 210 ------- 0 0.0 1.1 54 81
+ 1.054 1 0 cbr 210 ------- 0 1.0 0.1 27 82
- 1.054 1 0 cbr 210 ------- 0 1.0 0.1 27 82
r 1.05484 0 1 cbr 210 ------- 0 0.0 1.1 52 78
r 1.05484 1 0 cbr 210 ------- 0 1.0 0.1 26 79
+ 1.055 0 1 cbr 210 ------- 0 0.0 1.1 55 83
- 1.055 0 1 cbr 210 ------- 0 0.0 1.1 55 83
r 1.05584 0 1 cbr 210 ------- 0 0.0 1.1 53 80
+ 1.056 0 1 cbr 210 ------- 0 0.0 1.1 56 84
- 1.056 0 1 cbr 210 ------- 0 0.0 1.1 56 84
+ 1.056 1 0 cbr 210 ------- 0 1.0 0.1 28 85
- 1.056 1 0 cbr 210 ------- 0 1.0 0.1 28 85
r 1.05684 0 1 cbr 210 ------- 0 0.0 1.1 54 81
r 1.05684 1 0 cbr 210 ------- 0 1.0 0.1 27 82
+ 1.057 0 1 cbr 210 ------- 0 0.0 1.1 57 86
- 1.057 0 1 cbr 210 ------- 0 0.0 1.1 57 86
r 1.05784 0 1 cbr 210 ------- 0 0.0 1.1 55 83
+ 1.058 0 1 cbr 210 ------- 0 0.0 1.1 58 87
- 1.058 0 1 cbr 210 ------- 0 0.0 1.1 58 87
+ 1.058 1 0 cbr 210 ------- 0 1.0 0.1 29 88
- 1.058 1 0 cbr 210 ------- 0 1.0 0.1 29 88
r 1.05884 0 1 cbr 210 ------- 0 0.0 1.1 56 84
r 1.05884 1 0 cbr 210 ------- 0 1.0 0.1 28 85
+ 1.059 0 1 cbr 210 ------- 0 0.0 1.1 59 89
- 1.059 0 1 cbr 210 ------- 0 0.0 1.1 59 89
r 1.05984 0 1 cbr 210 ------- 0 0.0 1.1 57 86
+ 1.06 0 1 cbr 210 ------- 0 0.0 1.1 60 90
- 1.06 0 1 cbr 210 ------- 0 0.0 1.1 60 90
+ 1.06 1 0 cbr 210 ------- 0 1.0 0.1 30 91
- 1.06 1 0 cbr 210 ------- 0 1.0 0.1 30 91
r 1.06084 0 1 cbr 210 ------- 0 0.0 1.1 58 87
r 1.06084 1 0 cbr 210 ------- 0 1.0 0.1 29 88
+ 1.061 0 1 cbr 210 ------- 0 0.0 1.1 61 92
- 1.061 0 1 cbr 210 ------- 0 0.0 1.1 61 92
r 1.06184 0 1 cbr 210 ------- 0 0.0 1.1 59 89
+ 1.062 0 1 cbr 210 ------- 0 0.0 1.1 62 93
- 1.062 0 1 cbr 210 ------- 0 0.0 1.1 62 93
+ 1.062 1 0 cbr 210 ------- 0 1.0 0.1 31 94
- 1.062 1 0 cbr 210 ------- 0 1.0 0.1 31 94
r 1.06284 0 1 cbr 210 ------- 0 0.0 1.1 60 90
r 1.06284 1 0 cbr 210 ------- 0 1.0 0.1 30 91
+ 1.063 0 1 cbr 210 ------- 0 0.0 1.1 63 95
- 1.063 0 1 cbr 210 ------- 0 0.0 1.1 63 95
r 1.06384 0 1 cbr 210 ------- 0 0.0 1.1 61 92
+ 1.064 0 1 cbr 210 ------- 0 0.0 1.1 64 96
- 1.064 0 1 cbr 210 ------- 0 0.0 1.1 64 96
+ 1.064 1 0 cbr 210 ------- 0 1.0 0.1 32 97
- 1.064 1 0 cbr 210 ------- 0 1.0 0.1 32 97
r 1.06484 0 1 cbr 210 ------- 0 0.0 1.1 62 93
r 1.06484 1 0 cbr 210 ------- 0 1.0 0.1 31 94
+ 1.065 0 1 cbr 210 ------- 0 0.0 1.1 65 98
- 1.065 0 1 cbr 210 ------- 0 0.0 1.1 65 98
r 1.06584 0 1 cbr 210 ------- 0 0.0 1.1 63 95
+ 1.066 0 1 cbr 210 ------- 0 0.0 1.1 66 99
- 1.066 0 1 cbr 210 ------- 0 0.0 1.1 66 99
+ 1.066 1 0 cbr 210 ------- 0 1.0 0.1 33 100
- 1.066 1 0 cbr 210 ------- 0 1.0 0.1 33 100
r 1.06684 0 1 cbr 210 ------- 0 0.0 1.1 64 96
r 1.06684 1 0 cbr 210 ------- 0 1.0 0.1 32 97
+ 1.067 0 1 cbr 210 ------- 0 0.0 1.1 67 101
- 1.067 0 1 cbr 210 ------- 0 0.0 1.1 67 101
r 1.06784 0 1 cbr 210 ------- 0 0.0 1.1 65 98
+ 1.068 0 1 cbr 210 ------- 0 0.0 1.1 68 102
- 1.068 0 1 cbr 210 ------- 0 0.0 1.1 68 102
+ 1.068 1 0 cbr 210 ------- 0 1.0 0.1 34 103
- 1.068 1 0 cbr 210 ------- 0 1.0 0.1 34 103
r 1.06884 0 1 cbr 210 ------- 0 0.0 1.1 66 99
r 1.06884 1 0 cbr 210 ------- 0 1.0 0.1 33 100
+ 1.069 0 1 cbr 210 ------- 0 0.0 1.1 69 104
- 1.069 0 1 cbr 210 ------- 0 0.0 1.1 69 104
r 1.06984 0 1 cbr 210 ------- 0 0.0 1.1 67 101
+ 1.07 0 1 cbr 210 ------- 0 0.0 1.1 70 105
- 1.07 0 1 cbr 210 ------- 0 0.0 1.1 70 105
+ 1.07 1 0 cbr 210 ------- 0 1.0 0.1 35 106
- 1.07 1 0 cbr 210 ------- 0 1.0 0.1 35 106
r 1.07084 0 1 cbr 210 ------- 0 0.0 1.1 68 102
r 1.07084 1 0 cbr 210 ------- 0 1.0 0.1 34 103
+ 1.071 0 1 cbr 210 ------- 0 0.0 1.1 71 107
- 1.071 0 1 cbr 210 ------- 0 0.0 1.1 71 107
r 1.07184 0 1 cbr 210 ------- 0 0.0 1.1 69 104
+ 1.072 0 1 cbr 210 ------- 0 0.0 1.1 72 108
- 1.072 0 1 cbr 210 ------- 0 0.0 1.1 72 108
+ 1.072 1 0 cbr 210 ------- 0 1.0 0.1 36 109
- 1.072 1 0 cbr 210 ------- 0 1.0 0.1 36 109
r 1.07284 0 1 cbr 210 ------- 0 0.0 1.1 70 105
r 1.07284 1 0 cbr 210 ------- 0 1.0 0.1 35 106
+ 1.073 0 1 cbr 210 ------- 0 0.0 1.1 73 110
- 1.073 0 1 cbr 210 ------- 0 0.0 1.1 73 110
r 1.07384 0 1 cbr 210 ------- 0 0.0 1.1 71 107
+ 1.074 0 1 cbr 210 ------- 0 0.0 1.1 74 111
- 1.074 0 1 cbr 210 ------- 0 0.0 1.1 74 111
+ 1.074 1 0 cbr 210 ------- 0 1.0 0.1 37 112
- 1.074 1 0 cbr 210 ------- 0 1.0 0.1 37 112
r 1.07484 0 1 cbr 210 ------- 0 0.0 1.1 72 108
r 1.07484 1 0 cbr 210 ------- 0 1.0 0.1 36 109
+ 1.075 0 1 cbr 210 ------- 0 0.0 1.1 75 113
- 1.075 0 1 cbr 210 ------- 0 0.0 1.1 75 113
r 1.07584 0 1 cbr 210 ------- 0 0.0 1.1 73 110
+ 1.076 0 1 cbr 210 ------- 0 0.0 1.1 76 114
- 1.076 0 1 cbr 210 ------- 0 0.0 1.1 76 114
+ 1.076 1 0 cbr 210 ------- 0 1.0 0.1 38 115
- 1.076 1 0 cbr 210 ------- 0 1.0 0.1 38 115
r 1.07684 0 1 cbr 210 ------- 0 0.0 1.1 74 111
r 1.07684 1 0 cbr 210 ------- 0 1.0 0.1 37 112
+ 1.077 0 1 cbr 210 ------- 0 0.0 1.1 77 116
- 1.077 0 1 cbr 210 ------- 0 0.0 1.1 77 116
r 1.07784 0 1 cbr 210 ------- 0 0.0 1.1 75 113
+ 1.078 0 1 cbr 210 ------- 0 0.0 1.1 78 117
- 1.078 0 1 cbr 210 ------- 0 0.0 1.1 78 117
+ 1.078 1 0 cbr 210 ------- 0 1.0 0.1 39 118
- 1.078 1 0 cbr 210 ------- 0 1.0 0.1 39 118
r 1.07884 0 1 cbr 210 ------- 0 0.0 1.1 76 114
r 1.07884 1 0 cbr 210 ------- 0 1.0 0.1 38 115
+ 1.079 0 1 cbr 210 ------- 0 0.0 1.1 79 119
- 1.079 0 1 cbr 210 ------- 0 0.0 1.1 79 119
r 1.07984 0 1 cbr 210 ------- 0 0.0 1.1 77 116
+ 1.08 0 1 cbr 210 ------- 0 0.0 1.1 80 120
- 1.08 0 1 cbr 210 ------- 0 0.0 1.1 80 120
+ 1.08 1 0 cbr 210 ------- 0 1.0 0.1 40 121
- 1.08 1 0 cbr 210 ------- 0 1.0 0.1 40 121
r 1.08084 0 1 cbr 210 ------- 0 0.0 1.1 78 117
r 1.08084 1 0 cbr 210 ------- 0 1.0 0.1 39 118
+ 1.081 0 1 cbr 210 ------- 0 0.0 1.1 81 122
- 1.081 0 1 cbr 210 ------- 0 0.0 1.1 81 122
r 1.08184 0 1 cbr 210 ------- 0 0.0 1.1 79 119
+ 1.082 0 1 cbr 210 ------- 0 0.0 1.1 82 123
- 1.082 0 1 cbr 210 ------- 0 0.0 1.1 82 123
+ 1.082 1 0 cbr 210 ------- 0 1.0 0.1 41 124
- 1.082 1 0 cbr 210 ------- 0 1.0 0.1 41 124
r 1.08284 0 1 cbr 210 ------- 0 0.0 1.1 80 120
r 1.08284 1 0 cbr 210 ------- 0 1.0 0.1 40 121
+ 1.083 0 1 cbr 210 ------- 0 0.0 1.1 83 125
- 1.083 0 1 cbr 210 ------- 0 0.0 1.1 83 125
r 1.08384 0 1 cbr 210 ------- 0 0.0 1.1 81 122
+ 1.084 0 1 cbr 210 ------- 0 0.0 1.1 84 126
- 1.084 0 1 cbr 210 ------- 0 0.0 1.1 84 126
+ 1.084 1 0 cbr 210 ------- 0 1.0 0.1 42 127
- 1.084 1 0 cbr 210 ------- 0 1.0 0.1 42 127
r 1.08484 0 1 cbr 210 ------- 0 0.0 1.1 82 123
r 1.08484 1 0 cbr 210 ------- 0 1.0 0.1 41 124
+ 1.085 0 1 cbr 210 ------- 0 0.0 1.1 85 128
- 1.085 0 1 cbr 210 ------- 0 0.0 1.1 85 128
r 1.08584 0 1 cbr 210 ------- 0 0.0 1.1 83 125
+ 1.086 0 1 cbr 210 ------- 0 0.0 1.1 86 129
- 1.086 0 1 cbr 210 ------- 0 0.0 1.1 86 129
+ 1.086 1 0 cbr 210 ------- 0 1.0 0.1 43 130
- 1.086 1 0 cbr 210 ------- 0 1.0 0.1 43 130
r 1.08684 0 1 cbr 210 ------- 0 0.0 1.1 84 126
r 1.08684 1 0 cbr 210 ------- 0 1.0 0.1 42 127
+ 1.087 0 1 cbr 210 ------- 0 0.0 1.1 87 131
- 1.087 0 1 cbr 210 ------- 0 0.0 1.1 87 131
r 1.08784 0 1 cbr 210 ------- 0 0.0 1.1 85 128
+ 1.088 0 1 cbr 210 ------- 0 0.0 1.1 88 132
- 1.088 0 1 cbr 210 ------- 0 0.0 1.1 88 132
+ 1.088 1 0 cbr 210 ------- 0 1.0 0.1 44 133
- 1.088 1 0 cbr 210 ------- 0 1.0 0.1 44 133
r 1.08884 0 1 cbr 210 ------- 0 0.0 1.1 86 129
r 1.08884 1 0 cbr 210 ------- 0 1.0 0.1 43 130
+ 1.089 0 1 cbr 210 ------- 0 0.0 1.1 89 134
- 1.089 0 1 cbr 210 ------- 0 0.0 1.1 89 134
r 1.08984 0 1 cbr 210 ------- 0 0.0 1.1 87 131
+ 1.09 0 1 cbr 210 ------- 0 0.0 1.1 90 135
- 1.09 0 1 cbr 210 ------- 0 0.0 1.1 90 135
+ 1.09 1 0 cbr 210 ------- 0 1.0 0.1 45 136
- 1.09 1 0 cbr 210 ------- 0 1.0 0.1 45 136
r 1.09084 0 1 cbr 210 ------- 0 0.0 1.1 88 132
r 1.09084 1 0 cbr 210 ------- 0 1.0 0.1 44 133
+ 1.091 0 1 cbr 210 ------- 0 0.0 1.1 91 137
- 1.091 0 1 cbr 210 ------- 0 0.0 1.1 91 137
r 1.09184 0 1 cbr 210 ------- 0 0.0 1.1 89 134
+ 1.092 0 1 cbr 210 ------- 0 0.0 1.1 92 138
- 1.092 0 1 cbr 210 ------- 0 0.0 1.1 92 138
+ 1.092 1 0 cbr 210 ------- 0 1.0 0.1 46 139
- 1.092 1 0 cbr 210 ------- 0 1.0 0.1 46 139
r 1.09284 0 1 cbr 210 ------- 0 0.0 1.1 90 135
r 1.09284 1 0 cbr 210 ------- 0 1.0 0.1 45 136
+ 1.093 0 1 cbr 210 ------- 0 0.0 1.1 93 140
- 1.093 0 1 cbr 210 ------- 0 0.0 1.1 93 140
r 1.09384 0 1 cbr 210 ------- 0 0.0 1.1 91 137
+ 1.094 0 1 cbr 210 ------- 0 0.0 1.1 94 141
- 1.094 0 1 cbr 210 ------- 0 0.0 1.1 94 141
+ 1.094 1 0 cbr 210 ------- 0 1.0 0.1 47 142
- 1.094 1 0 cbr 210 ------- 0 1.0 0.1 47 142
r 1.09484 0 1 cbr 210 ------- 0 0.0 1.1 92 138
r 1.09484 1 0 cbr 210 ------- 0 1.0 0.1 46 139
+ 1.095 0 1 cbr 210 ------- 0 0.0 1.1 95 143
- 1.095 0 1 cbr 210 ------- 0 0.0 1.1 95 143
r 1.09584 0 1 cbr 210 ------- 0 0.0 1.1 93 140
+ 1.096 0 1 cbr 210 ------- 0 0.0 1.1 96 144
- 1.096 0 1 cbr 210 ------- 0 0.0 1.1 96 144
+ 1.096 1 0 cbr 210 ------- 0 1.0 0.1 48 145
- 1.096 1 0 cbr 210 ------- 0 1.0 0.1 48 145
r 1.09684 0 1 cbr 210 ------- 0 0.0 1.1 94 141
r 1.09684 1 0 cbr 210 ------- 0 1.0 0.1 47 142
+ 1.097 0 1 cbr 210 ------- 0 0.0 1.1 97 146
- 1.097 0 1 cbr 210 ------- 0 0.0 1.1 97 146
r 1.09784 0 1 cbr 210 ------- 0 0.0 1.1 95 143
+ 1.098 0 1 cbr 210 ------- 0 0.0 1.1 98 147
- 1.098 0 1 cbr 210 ------- 0 0.0 1.1 98 147
+ 1.098 1 0 cbr 210 ------- 0 1.0 0.1 49 148
- 1.098 1 0 cbr 210 ------- 0 1.0 0.1 49 148
r 1.09884 0 1 cbr 210 ------- 0 0.0 1.1 96 144
r 1.09884 1 0 cbr 210 ------- 0 1.0 0.1 48 145
+ 1.099 0 1 cbr 210 ------- 0 0.0 1.1 99 149
- 1.099 0 1 cbr 210 ------- 0 0.0 1.1 99 149
r 1.09984 0 1 cbr 210 ------- 0 0.0 1.1 97 146
+ 1.1 0 1 cbr 210 ------- 0 0.0 1.1 100 150
- 1.1 0 1 cbr 210 ------- 0 0.0 1.1 100 150
+ 1.1 1 0 cbr 210 ------- 0 1.0 0.1 50 151
- 1.1 1 0 cbr 210 ------- 0 1.0 0.1 50 151
r 1.10084 0 1 cbr 210 ------- 0 0.0 1.1 98 147
r 1.10084 1 0 cbr 210 ------- 0 1.0 0.1 49 148
+ 1.101 0 1 cbr 210 ------- 0 0.0 1.1 101 152
- 1.101 0 1 cbr 210 ------- 0 0.0 1.1 101 152
r 1.10184 0 1 cbr 210 ------- 0 0.0 1.1 99 149
+ 1.102 0 1 cbr 210 ------- 0 0.0 1.1 102 153
- 1.102 0 1 cbr 210 ------- 0 0.0 1.1 102 153
+ 1.102 1 0 cbr 210 ------- 0 1.0 0.1 51 154
- 1.102 1 0 cbr 210 ------- 0 1.0 0.1 51 154
r 1.10284 0 1 cbr 210 ------- 0 0.0 1.1 100 150
r 1.10284 1 0 cbr 210 ------- 0 1.0 0.1 50 151
+ 1.103 0 1 cbr 210 ------- 0 0.0 1.1 103 155
- 1.103 0 1 cbr 210 ------- 0 0.0 1.1 103 155
r 1.10384 0 1 cbr 210 ------- 0 0.0 1.1 101 152
+ 1.104 0 1 cbr 210 ------- 0 0.0 1.1 104 156
- 1.104 0 1 cbr 210 ------- 0 0.0 1.1 104 156
+ 1.104 1 0 cbr 210 ------- 0 1.0 0.1 52 157
- 1.104 1 0 cbr 210 ------- 0 1.0 0.1 52 157
r 1.10484 0 1 cbr 210 ------- 0 0.0 1.1 102 153
r 1.10484 1 0 cbr 210 ------- 0 1.0 0.1 51 154
+ 1.105 0 1 cbr 210 ------- 0 0.0 1.1 105 158
- 1.105 0 1 cbr 210 ------- 0 0.0 1.1 105 158
r 1.10584 0 1 cbr 210 ------- 0 0.0 1.1 103 155
+ 1.106 0 1 cbr 210 ------- 0 0.0 1.1 106 159
- 1.106 0 1 cbr 210 ------- 0 0.0 1.1 106 159
+ 1.106 1 0 cbr 210 ------- 0 1.0 0.1 53 160
- 1.106 1 0 cbr 210 ------- 0 1.0 0.1 53 160
r 1.10684 0 1 cbr 210 ------- 0 0.0 1.1 104 156
r 1.10684 1 0 cbr 210 ------- 0 1.0 0.1 52 157
+ 1.107 0 1 cbr 210 ------- 0 0.0 1.1 107 161
- 1.107 0 1 cbr 210 ------- 0 0.0 1.1 107 161
r 1.10784 0 1 cbr 210 ------- 0 0.0 1.1 105 158
+ 1.108 0 1 cbr 210 ------- 0 0.0 1.1 108 162
- 1.108 0 1 cbr 210 ------- 0 0.0 1.1 108 162
+ 1.108 1 0 cbr 210 ------- 0 1.0 0.1 54 163
- 1.108 1 0 cbr 210 ------- 0 1.0 0.1 54 163
r 1.10884 0 1 cbr 210 ------- 0 0.0 1.1 106 159
r 1.10884 1 0 cbr 210 ------- 0 1.0 0.1 53 160
+ 1.109 0 1 cbr 210 ------- 0 0.0 1.1 109 164
- 1.109 0 1 cbr 210 ------- 0 0.0 1.1 109 164
r 1.10984 0 1 cbr 210 ------- 0 0.0 1.1 107 161
+ 1.11 0 1 cbr 210 ------- 0 0.0 1.1 110 165
- 1.11 0 1 cbr 210 ------- 0 0.0 1.1 110 165
+ 1.11 1 0 cbr 210 ------- 0 1.0 0.1 55 166
- 1.11 1 0 cbr 210 ------- 0 1.0 0.1 55 166
r 1.11084 0 1 cbr 210 ------- 0 0.0 1.1 108 162
r 1.11084 1 0 cbr 210 ------- 0 1.0 0.1 54 163
+ 1.111 0 1 cbr 210 ------- 0 0.0 1.1 111 167
- 1.111 0 1 cbr 210 ------- 0 0.0 1.1 111 167
r 1.11184 0 1 cbr 210 ------- 0 0.0 1.1 109 164
+ 1.112 0 1 cbr 210 ------- 0 0.0 1.1 112 168
- 1.112 0 1 cbr 210 ------- 0 0.0 1.1 112 168
+ 1.112 1 0 cbr 210 ------- 0 1.0 0.1 56 169
- 1.112 1 0 cbr 210 ------- 0 1.0 0.1 56 169
r 1.11284 0 1 cbr 210 ------- 0 0.0 1.1 110 165
r 1.11284 1 0 cbr 210 ------- 0 1.0 0.1 55 166
+ 1.113 0 1 cbr 210 ------- 0 0.0 1.1 113 170
- 1.113 0 1 cbr 210 ------- 0 0.0 1.1 113 170
r 1.11384 0 1 cbr 210 ------- 0 0.0 1.1 111 167
+ 1.114 0 1 cbr 210 ------- 0 0.0 1.1 114 171
- 1.114 0 1 cbr 210 ------- 0 0.0 1.1 114 171
+ 1.114 1 0 cbr 210 ------- 0 1.0 0.1 57 172
- 1.114 1 0 cbr 210 ------- 0 1.0 0.1 57 172
r 1.11484 0 1 cbr 210 ------- 0 0.0 1.1 112 168
r 1.11484 1 0 cbr 210 ------- 0 1.0 0.1 56 169
+ 1.115 0 1 cbr 210 ------- 0 0.0 1.1 115 173
- 1.115 0 1 cbr 210 ------- 0 0.0 1.1 115 173
r 1.11584 0 1 cbr 210 ------- 0 0.0 1.1 113 170
+ 1.116 0 1 cbr 210 ------- 0 0.0 1.1 116 174
- 1.116 0 1 cbr 210 ------- 0 0.0 1.1 116 174
+ 1.116 1 0 cbr 210 ------- 0 1.0 0.1 58 175
- 1.116 1 0 cbr 210 ------- 0 1.0 0.1 58 175
r 1.11684 0 1 cbr 210 ------- 0 0.0 1.1 114 171
r 1.11684 1 0 cbr 210 ------- 0 1.0 0.1 57 172
+ 1.117 0 1 cbr 210 ------- 0 0.0 1.1 117 176
- 1.117 0 1 cbr 210 ------- 0 0.0 1.1 117 176
r 1.11784 0 1 cbr 210 ------- 0 0.0 1.1 115 173
+ 1.118 0 1 cbr 210 ------- 0 0.0 1.1 118 177
- 1.118 0 1 cbr 210 ------- 0 0.0 1.1 118 177
+ 1.118 1 0 cbr 210 ------- 0 1.0 0.1 59 178
- 1.118 1 0 cbr 210 ------- 0 1.0 0.1 59 178
r 1.11884 0 1 cbr 210 ------- 0 0.0 1.1 116 174
r 1.11884 1 0 cbr 210 ------- 0 1.0 0.1 58 175
+ 1.119 0 1 cbr 210 ------- 0 0.0 1.1 119 179
- 1.119 0 1 cbr 210 ------- 0 0.0 1.1 119 179
r 1.11984 0 1 cbr 210 ------- 0 0.0 1.1 117 176
+ 1.12 0 1 cbr 210 ------- 0 0.0 1.1 120 180
- 1.12 0 1 cbr 210 ------- 0 0.0 1.1 120 180
+ 1.12 1 0 cbr 210 ------- 0 1.0 0.1 60 181
- 1.12 1 0 cbr 210 ------- 0 1.0 0.1 60 181
r 1.12084 0 1 cbr 210 ------- 0 0.0 1.1 118 177
r 1.12084 1 0 cbr 210 ------- 0 1.0 0.1 59 178
+ 1.121 0 1 cbr 210 ------- 0 0.0 1.1 121 182
- 1.121 0 1 cbr 210 ------- 0 0.0 1.1 121 182
r 1.12184 0 1 cbr 210 ------- 0 0.0 1.1 119 179
+ 1.122 0 1 cbr 210 ------- 0 0.0 1.1 122 183
- 1.122 0 1 cbr 210 ------- 0 0.0 1.1 122 183
+ 1.122 1 0 cbr 210 ------- 0 1.0 0.1 61 184
- 1.122 1 0 cbr 210 ------- 0 1.0 0.1 61 184
r 1.12284 0 1 cbr 210 ------- 0 0.0 1.1 120 180
r 1.12284 1 0 cbr 210 ------- 0 1.0 0.1 60 181
+ 1.123 0 1 cbr 210 ------- 0 0.0 1.1 123 185
- 1.123 0 1 cbr 210 ------- 0 0.0 1.1 123 185
r 1.12384 0 1 cbr 210 ------- 0 0.0 1.1 121 182
+ 1.124 0 1 cbr 210 ------- 0 0.0 1.1 124 186
- 1.124 0 1 cbr 210 ------- 0 0.0 1.1 124 186
+ 1.124 1 0 cbr 210 ------- 0 1.0 0.1 62 187
- 1.124 1 0 cbr 210 ------- 0 1.0 0.1 62 187
r 1.12484 0 1 cbr 210 ------- 0 0.0 1.1 122 183
r 1.12484 1 0 cbr 210 ------- 0 1.0 0.1 61 184
+ 1.125 0 1 cbr 210 ------- 0 0.0 1.1 125 188
- 1.125 0 1 cbr 210 ------- 0 0.0 1.1 125 188
r 1.12584 0 1 cbr 210 ------- 0 0.0 1.1 123 185
+ 1.126 0 1 cbr 210 ------- 0 0.0 1.1 126 189
- 1.126 0 1 cbr 210 ------- 0 0.0 1.1 126 189
+ 1.126 1 0 cbr 210 ------- 0 1.0 0.1 63 190
- 1.126 1 0 cbr 210 ------- 0 1.0 0.1 63 190
r 1.12684 0 1 cbr 210 ------- 0 0.0 1.1 124 186
r 1.12684 1 0 cbr 210 ------- 0 1.0 0.1 62 187
+ 1.127 0 1 cbr 210 ------- 0 0.0 1.1 127 191
- 1.127 0 1 cbr 210 ------- 0 0.0 1.1 127 191
r 1.12784 0 1 cbr 210 ------- 0 0.0 1.1 125 188
+ 1.128 0 1 cbr 210 ------- 0 0.0 1.1 128 192
- 1.128 0 1 cbr 210 ------- 0 0.0 1.1 128 192
+ 1.128 1 0 cbr 210 ------- 0 1.0 0.1 64 193
- 1.128 1 0 cbr 210 ------- 0 1.0 0.1 64 193
r 1.12884 0 1 cbr 210 ------- 0 0.0 1.1 126 189
r 1.12884 1 0 cbr 210 ------- 0 1.0 0.1 63 190
+ 1.129 0 1 cbr 210 ------- 0 0.0 1.1 129 194
- 1.129 0 1 cbr 210 ------- 0 0.0 1.1 129 194
r 1.12984 0 1 cbr 210 ------- 0 0.0 1.1 127 191
+ 1.13 0 1 cbr 210 ------- 0 0.0 1.1 130 195
- 1.13 0 1 cbr 210 ------- 0 0.0 1.1 130 195
+ 1.13 1 0 cbr 210 ------- 0 1.0 0.1 65 196
- 1.13 1 0 cbr 210 ------- 0 1.0 0.1 65 196
r 1.13084 0 1 cbr 210 ------- 0 0.0 1.1 128 192
r 1.13084 1 0 cbr 210 ------- 0 1.0 0.1 64 193
+ 1.131 0 1 cbr 210 ------- 0 0.0 1.1 131 197
- 1.131 0 1 cbr 210 ------- 0 0.0 1.1 131 197
r 1.13184 0 1 cbr 210 ------- 0 0.0 1.1 129 194
+ 1.132 0 1 cbr 210 ------- 0 0.0 1.1 132 198
- 1.132 0 1 cbr 210 ------- 0 0.0 1.1 132 198
+ 1.132 1 0 cbr 210 ------- 0 1.0 0.1 66 199
- 1.132 1 0 cbr 210 ------- 0 1.0 0.1 66 199
r 1.13284 0 1 cbr 210 ------- 0 0.0 1.1 130 195
r 1.13284 1 0 cbr 210 ------- 0 1.0 0.1 65 196
+ 1.133 0 1 cbr 210 ------- 0 0.0 1.1 133 200
- 1.133 0 1 cbr 210 ------- 0 0.0 1.1 133 200
r 1.13384 0 1 cbr 210 ------- 0 0.0 1.1 131 197
+ 1.134 0 1 cbr 210 ------- 0 0.0 1.1 134 201
- 1.134 0 1 cbr 210 ------- 0 0.0 1.1 134 201
+ 1.134 1 0 cbr 210 ------- 0 1.0 0.1 67 202
- 1.134 1 0 cbr 210 ------- 0 1.0 0.1 67 202
r 1.13484 0 1 cbr 210 ------- 0 0.0 1.1 132 198
r 1.13484 1 0 cbr 210 ------- 0 1.0 0.1 66 199
+ 1.135 0 1 cbr 210 ------- 0 0.0 1.1 135 203
- 1.135 0 1 cbr 210 ------- 0 0.0 1.1 135 203
r 1.13584 0 1 cbr 210 ------- 0 0.0 1.1 133 200
+ 1.136 0 1 cbr 210 ------- 0 0.0 1.1 136 204
- 1.136 0 1 cbr 210 ------- 0 0.0 1.1 136 204
+ 1.136 1 0 cbr 210 ------- 0 1.0 0.1 68 205
- 1.136 1 0 cbr 210 ------- 0 1.0 0.1 68 205
r 1.13684 0 1 cbr 210 ------- 0 0.0 1.1 134 201
r 1.13684 1 0 cbr 210 ------- 0 1.0 0.1 67 202
+ 1.137 0 1 cbr 210 ------- 0 0.0 1.1 137 206
- 1.137 0 1 cbr 210 ------- 0 0.0 1.1 137 206
r 1.13784 0 1 cbr 210 ------- 0 0.0 1.1 135 203
+ 1.138 0 1 cbr 210 ------- 0 0.0 1.1 138 207
- 1.138 0 1 cbr 210 ------- 0 0.0 1.1 138 207
+ 1.138 1 0 cbr 210 ------- 0 1.0 0.1 69 208
- 1.138 1 0 cbr 210 ------- 0 1.0 0.1 69 208
r 1.13884 0 1 cbr 210 ------- 0 0.0 1.1 136 204
r 1.13884 1 0 cbr 210 ------- 0 1.0 0.1 68 205
+ 1.139 0 1 cbr 210 ------- 0 0.0 1.1 139 209
- 1.139 0 1 cbr 210 ------- 0 0.0 1.1 139 209
r 1.13984 0 1 cbr 210 ------- 0 0.0 1.1 137 206
+ 1.14 0 1 cbr 210 ------- 0 0.0 1.1 140 210
- 1.14 0 1 cbr 210 ------- 0 0.0 1.1 140 210
+ 1.14 1 0 cbr 210 ------- 0 1.0 0.1 70 211
- 1.14 1 0 cbr 210 ------- 0 1.0 0.1 70 211
r 1.14084 0 1 cbr 210 ------- 0 0.0 1.1 138 207
r 1.14084 1 0 cbr 210 ------- 0 1.0 0.1 69 208
+ 1.141 0 1 cbr 210 ------- 0 0.0 1.1 141 212
- 1.141 0 1 cbr 210 ------- 0 0.0 1.1 141 212
r 1.14184 0 1 cbr 210 ------- 0 0.0 1.1 139 209
+ 1.142 0 1 cbr 210 ------- 0 0.0 1.1 142 213
- 1.142 0 1 cbr 210 ------- 0 0.0 1.1 142 213
+ 1.142 1 0 cbr 210 ------- 0 1.0 0.1 71 214
- 1.142 1 0 cbr 210 ------- 0 1.0 0.1 71 214
r 1.14284 0 1 cbr 210 ------- 0 0.0 1.1 140 210
r 1.14284 1 0 cbr 210 ------- 0 1.0 0.1 70 211
+ 1.143 0 1 cbr 210 ------- 0 0.0 1.1 143 215
- 1.143 0 1 cbr 210 ------- 0 0.0 1.1 143 215
r 1.14384 0 1 cbr 210 ------- 0 0.0 1.1 141 212
+ 1.144 0 1 cbr 210 ------- 0 0.0 1.1 144 216
- 1.144 0 1 cbr 210 ------- 0 0.0 1.1 144 216
+ 1.144 1 0 cbr 210 ------- 0 1.0 0.1 72 217
- 1.144 1 0 cbr 210 ------- 0 1.0 0.1 72 217
r 1.14484 0 1 cbr 210 ------- 0 0.0 1.1 142 213
r 1.14484 1 0 cbr 210 ------- 0 1.0 0.1 71 214
+ 1.145 0 1 cbr 210 ------- 0 0.0 1.1 145 218
- 1.145 0 1 cbr 210 ------- 0 0.0 1.1 145 218
r 1.14584 0 1 cbr 210 ------- 0 0.0 1.1 143 215
+ 1.146 0 1 cbr 210 ------- 0 0.0 1.1 146 219
- 1.146 0 1 cbr 210 ------- 0 0.0 1.1 146 219
+ 1.146 1 0 cbr 210 ------- 0 1.0 0.1 73 220
- 1.146 1 0 cbr 210 ------- 0 1.0 0.1 73 220
r 1.14684 0 1 cbr 210 ------- 0 0.0 1.1 144 216
r 1.14684 1 0 cbr 210 ------- 0 1.0 0.1 72 217
+ 1.147 0 1 cbr 210 ------- 0 0.0 1.1 147 221
- 1.147 0 1 cbr 210 ------- 0 0.0 1.1 147 221
r 1.14784 0 1 cbr 210 ------- 0 0.0 1.1 145 218
+ 1.148 0 1 cbr 210 ------- 0 0.0 1.1 148 222