V -t * -v 1.0a5 -a 0
A -t * -n 1 -p 0 -o 0x7fffffff -c 30 -a 1
A -t * -h 1 -m 1073741823 -s 0
n -t * -a 4 -s 4 -S UP -v square -c black -i black
n -t * -a 0 -s 0 -S UP -v circle -c black -i black
n -t * -a 5 -s 5 -S UP -v square -c black -i black
n -t * -a 1 -s 1 -S UP -v circle -c black -i black
n -t * -a 2 -s 2 -S UP -v square -c black -i black
n -t * -a 3 -s 3 -S UP -v square -c black -i black
l -t * -s 0 -d 2 -S UP -r 2000000 -D 0.01 -c black -o right-down
l -t * -s 2 -d 3 -S UP -r 1500000 -D 0.014999999999999999 -c black -o rigt-middle
l -t * -s 3 -d 5 -S UP -r 1500000 -D 0.02 -c black -o down
l -t * -s 3 -d 4 -S UP -r 2000000 -D 0.02 -c black -o right
l -t * -s 1 -d 2 -S UP -r 3000000 -D 0.014999999999999999 -c black -o right-up
+ -t 1 -s 0 -d 2 -p cbr -e 210 -c 0 -i 0 -a 0 -x {0.0 4.2 0 ------- null}
- -t 1 -s 0 -d 2 -p cbr -e 210 -c 0 -i 0 -a 0 -x {0.0 4.2 0 ------- null}
h -t 1 -s 0 -d 2 -p cbr -e 210 -c 0 -i 0 -a 0 -x {0.0 4.2 -1 ------- null}
+ -t 1.01 -s 0 -d 2 -p cbr -e 210 -c 0 -i 1 -a 0 -x {0.0 4.2 1 ------- null}
- -t 1.01 -s 0 -d 2 -p cbr -e 210 -c 0 -i 1 -a 0 -x {0.0 4.2 1 ------- null}
h -t 1.01 -s 0 -d 2 -p cbr -e 210 -c 0 -i 1 -a 0 -x {0.0 4.2 -1 ------- null}
r -t 1.01084 -s 0 -d 2 -p cbr -e 210 -c 0 -i 0 -a 0 -x {0.0 4.2 0 ------- null}
+ -t 1.01084 -s 2 -d 3 -p cbr -e 210 -c 0 -i 0 -a 0 -x {0.0 4.2 0 ------- null}
- -t 1.01084 -s 2 -d 3 -p cbr -e 210 -c 0 -i 0 -a 0 -x {0.0 4.2 0 ------- null}
h -t 1.01084 -s 2 -d 3 -p cbr -e 210 -c 0 -i 0 -a 0 -x {0.0 4.2 -1 ------- null}
+ -t 1.02 -s 0 -d 2 -p cbr -e 210 -c 0 -i 2 -a 0 -x {0.0 4.2 2 ------- null}
- -t 1.02 -s 0 -d 2 -p cbr -e 210 -c 0 -i 2 -a 0 -x {0.0 4.2 2 ------- null}
h -t 1.02 -s 0 -d 2 -p cbr -e 210 -c 0 -i 2 -a 0 -x {0.0 4.2 -1 ------- null}
r -t 1.02084 -s 0 -d 2 -p cbr -e 210 -c 0 -i 1 -a 0 -x {0.0 4.2 1 ------- null}
+ -t 1.02084 -s 2 -d 3 -p cbr -e 210 -c 0 -i 1 -a 0 -x {0.0 4.2 1 ------- null}
- -t 1.02084 -s 2 -d 3 -p cbr -e 210 -c 0 -i 1 -a 0 -x {0.0 4.2 1 ------- null}
h -t 1.02084 -s 2 -d 3 -p cbr -e 210 -c 0 -i 1 -a 0 -x {0.0 4.2 -1 ------- null}
r -t 1.02696 -s 2 -d 3 -p cbr -e 210 -c 0 -i 0 -a 0 -x {0.0 4.2 0 ------- null}
+ -t 1.02696 -s 3 -d 4 -p cbr -e 210 -c 0 -i 0 -a 0 -x {0.0 4.2 0 ------- null}
- -t 1.02696 -s 3 -d 4 -p cbr -e 210 -c 0 -i 0 -a 0 -x {0.0 4.2 0 ------- null}
h -t 1.02696 -s 3 -d 4 -p cbr -e 210 -c 0 -i 0 -a 0 -x {0.0 4.2 -1 ------- null}
+ -t 1.03 -s 0 -d 2 -p cbr -e 210 -c 0 -i 3 -a 0 -x {0.0 4.2 3 ------- null}
- -t 1.03 -s 0 -d 2 -p cbr -e 210 -c 0 -i 3 -a 0 -x {0.0 4.2 3 ------- null}
h -t 1.03 -s 0 -d 2 -p cbr -e 210 -c 0 -i 3 -a 0 -x {0.0 4.2 -1 ------- null}
r -t 1.03084 -s 0 -d 2 -p cbr -e 210 -c 0 -i 2 -a 0 -x {0.0 4.2 2 ------- null}
+ -t 1.03084 -s 2 -d 3 -p cbr -e 210 -c 0 -i 2 -a 0 -x {0.0 4.2 2 ------- null}
- -t 1.03084 -s 2 -d 3 -p cbr -e 210 -c 0 -i 2 -a 0 -x {0.0 4.2 2 ------- null}
h -t 1.03084 -s 2 -d 3 -p cbr -e 210 -c 0 -i 2 -a 0 -x {0.0 4.2 -1 ------- null}
r -t 1.03696 -s 2 -d 3 -p cbr -e 210 -c 0 -i 1 -a 0 -x {0.0 4.2 1 ------- null}
+ -t 1.03696 -s 3 -d 4 -p cbr -e 210 -c 0 -i 1 -a 0 -x {0.0 4.2 1 ------- null}
- -t 1.03696 -s 3 -d 4 -p cbr -e 210 -c 0 -i 1 -a 0 -x {0.0 4.2 1 ------- null}
h -t 1.03696 -s 3 -d 4 -p cbr -e 210 -c 0 -i 1 -a 0 -x {0.0 4.2 -1 ------- null}
+ -t 1.04 -s 0 -d 2 -p cbr -e 210 -c 0 -i 4 -a 0 -x {0.0 4.2 4 ------- null}
- -t 1.04 -s 0 -d 2 -p cbr -e 210 -c 0 -i 4 -a 0 -x {0.0 4.2 4 ------- null}
h -t 1.04 -s 0 -d 2 -p cbr -e 210 -c 0 -i 4 -a 0 -x {0.0 4.2 -1 ------- null}
r -t 1.04084 -s 0 -d 2 -p cbr -e 210 -c 0 -i 3 -a 0 -x {0.0 4.2 3 ------- null}
+ -t 1.04084 -s 2 -d 3 -p cbr -e 210 -c 0 -i 3 -a 0 -x {0.0 4.2 3 ------- null}
- -t 1.04084 -s 2 -d 3 -p cbr -e 210 -c 0 -i 3 -a 0 -x {0.0 4.2 3 ------- null}
h -t 1.04084 -s 2 -d 3 -p cbr -e 210 -c 0 -i 3 -a 0 -x {0.0 4.2 -1 ------- null}
r -t 1.04696 -s 2 -d 3 -p cbr -e 210 -c 0 -i 2 -a 0 -x {0.0 4.2 2 ------- null}
+ -t 1.04696 -s 3 -d 4 -p cbr -e 210 -c 0 -i 2 -a 0 -x {0.0 4.2 2 ------- null}
- -t 1.04696 -s 3 -d 4 -p cbr -e 210 -c 0 -i 2 -a 0 -x {0.0 4.2 2 ------- null}
h -t 1.04696 -s 3 -d 4 -p cbr -e 210 -c 0 -i 2 -a 0 -x {0.0 4.2 -1 ------- null}
r -t 1.0478 -s 3 -d 4 -p cbr -e 210 -c 0 -i 0 -a 0 -x {0.0 4.2 0 ------- null}
+ -t 1.05 -s 0 -d 2 -p cbr -e 210 -c 0 -i 5 -a 0 -x {0.0 4.2 5 ------- null}
- -t 1.05 -s 0 -d 2 -p cbr -e 210 -c 0 -i 5 -a 0 -x {0.0 4.2 5 ------- null}
h -t 1.05 -s 0 -d 2 -p cbr -e 210 -c 0 -i 5 -a 0 -x {0.0 4.2 -1 ------- null}
r -t 1.05084 -s 0 -d 2 -p cbr -e 210 -c 0 -i 4 -a 0 -x {0.0 4.2 4 ------- null}
+ -t 1.05084 -s 2 -d 3 -p cbr -e 210 -c 0 -i 4 -a 0 -x {0.0 4.2 4 ------- null}
- -t 1.05084 -s 2 -d 3 -p cbr -e 210 -c 0 -i 4 -a 0 -x {0.0 4.2 4 ------- null}
h -t 1.05084 -s 2 -d 3 -p cbr -e 210 -c 0 -i 4 -a 0 -x {0.0 4.2 -1 ------- null}
r -t 1.05696 -s 2 -d 3 -p cbr -e 210 -c 0 -i 3 -a 0 -x {0.0 4.2 3 ------- null}
+ -t 1.05696 -s 3 -d 4 -p cbr -e 210 -c 0 -i 3 -a 0 -x {0.0 4.2 3 ------- null}
- -t 1.05696 -s 3 -d 4 -p cbr -e 210 -c 0 -i 3 -a 0 -x {0.0 4.2 3 ------- null}
h -t 1.05696 -s 3 -d 4 -p cbr -e 210 -c 0 -i 3 -a 0 -x {0.0 4.2 -1 ------- null}
r -t 1.0578 -s 3 -d 4 -p cbr -e 210 -c 0 -i 1 -a 0 -x {0.0 4.2 1 ------- null}
+ -t 1.06 -s 0 -d 2 -p cbr -e 210 -c 0 -i 6 -a 0 -x {0.0 4.2 6 ------- null}
- -t 1.06 -s 0 -d 2 -p cbr -e 210 -c 0 -i 6 -a 0 -x {0.0 4.2 6 ------- null}
h -t 1.06 -s 0 -d 2 -p cbr -e 210 -c 0 -i 6 -a 0 -x {0.0 4.2 -1 ------- null}
r -t 1.06084 -s 0 -d 2 -p cbr -e 210 -c 0 -i 5 -a 0 -x {0.0 4.2 5 ------- null}
+ -t 1.06084 -s 2 -d 3 -p cbr -e 210 -c 0 -i 5 -a 0 -x {0.0 4.2 5 ------- null}
- -t 1.06084 -s 2 -d 3 -p cbr -e 210 -c 0 -i 5 -a 0 -x {0.0 4.2 5 ------- null}
h -t 1.06084 -s 2 -d 3 -p cbr -e 210 -c 0 -i 5 -a 0 -x {0.0 4.2 -1 ------- null}
r -t 1.06696 -s 2 -d 3 -p cbr -e 210 -c 0 -i 4 -a 0 -x {0.0 4.2 4 ------- null}
+ -t 1.06696 -s 3 -d 4 -p cbr -e 210 -c 0 -i 4 -a 0 -x {0.0 4.2 4 ------- null}
- -t 1.06696 -s 3 -d 4 -p cbr -e 210 -c 0 -i 4 -a 0 -x {0.0 4.2 4 ------- null}
h -t 1.06696 -s 3 -d 4 -p cbr -e 210 -c 0 -i 4 -a 0 -x {0.0 4.2 -1 ------- null}
r -t 1.0678 -s 3 -d 4 -p cbr -e 210 -c 0 -i 2 -a 0 -x {0.0 4.2 2 ------- null}
+ -t 1.07 -s 0 -d 2 -p cbr -e 210 -c 0 -i 7 -a 0 -x {0.0 4.2 7 ------- null}
- -t 1.07 -s 0 -d 2 -p cbr -e 210 -c 0 -i 7 -a 0 -x {0.0 4.2 7 ------- null}
h -t 1.07 -s 0 -d 2 -p cbr -e 210 -c 0 -i 7 -a 0 -x {0.0 4.2 -1 ------- null}
r -t 1.07084 -s 0 -d 2 -p cbr -e 210 -c 0 -i 6 -a 0 -x {0.0 4.2 6 ------- null}
+ -t 1.07084 -s 2 -d 3 -p cbr -e 210 -c 0 -i 6 -a 0 -x {0.0 4.2 6 ------- null}
- -t 1.07084 -s 2 -d 3 -p cbr -e 210 -c 0 -i 6 -a 0 -x {0.0 4.2 6 ------- null}
h -t 1.07084 -s 2 -d 3 -p cbr -e 210 -c 0 -i 6 -a 0 -x {0.0 4.2 -1 ------- null}
r -t 1.07696 -s 2 -d 3 -p cbr -e 210 -c 0 -i 5 -a 0 -x {0.0 4.2 5 ------- null}
+ -t 1.07696 -s 3 -d 4 -p cbr -e 210 -c 0 -i 5 -a 0 -x {0.0 4.2 5 ------- null}
- -t 1.07696 -s 3 -d 4 -p cbr -e 210 -c 0 -i 5 -a 0 -x {0.0 4.2 5 ------- null}
h -t 1.07696 -s 3 -d 4 -p cbr -e 210 -c 0 -i 5 -a 0 -x {0.0 4.2 -1 ------- null}
r -t 1.0778 -s 3 -d 4 -p cbr -e 210 -c 0 -i 3 -a 0 -x {0.0 4.2 3 ------- null}
+ -t 1.08 -s 0 -d 2 -p cbr -e 210 -c 0 -i 8 -a 0 -x {0.0 4.2 8 ------- null}
- -t 1.08 -s 0 -d 2 -p cbr -e 210 -c 0 -i 8 -a 0 -x {0.0 4.2 8 ------- null}
h -t 1.08 -s 0 -d 2 -p cbr -e 210 -c 0 -i 8 -a 0 -x {0.0 4.2 -1 ------- null}
r -t 1.08084 -s 0 -d 2 -p cbr -e 210 -c 0 -i 7 -a 0 -x {0.0 4.2 7 ------- null}
+ -t 1.08084 -s 2 -d 3 -p cbr -e 210 -c 0 -i 7 -a 0 -x {0.0 4.2 7 ------- null}
- -t 1.08084 -s 2 -d 3 -p cbr -e 210 -c 0 -i 7 -a 0 -x {0.0 4.2 7 ------- null}
h -t 1.08084 -s 2 -d 3 -p cbr -e 210 -c 0 -i 7 -a 0 -x {0.0 4.2 -1 ------- null}
r -t 1.08696 -s 2 -d 3 -p cbr -e 210 -c 0 -i 6 -a 0 -x {0.0 4.2 6 ------- null}
+ -t 1.08696 -s 3 -d 4 -p cbr -e 210 -c 0 -i 6 -a 0 -x {0.0 4.2 6 ------- null}
- -t 1.08696 -s 3 -d 4 -p cbr -e 210 -c 0 -i 6 -a 0 -x {0.0 4.2 6 ------- null}
h -t 1.08696 -s 3 -d 4 -p cbr -e 210 -c 0 -i 6 -a 0 -x {0.0 4.2 -1 ------- null}
r -t 1.0878 -s 3 -d 4 -p cbr -e 210 -c 0 -i 4 -a 0 -x {0.0 4.2 4 ------- null}
+ -t 1.09 -s 0 -d 2 -p cbr -e 210 -c 0 -i 9 -a 0 -x {0.0 4.2 9 ------- null}
- -t 1.09 -s 0 -d 2 -p cbr -e 210 -c 0 -i 9 -a 0 -x {0.0 4.2 9 ------- null}
h -t 1.09 -s 0 -d 2 -p cbr -e 210 -c 0 -i 9 -a 0 -x {0.0 4.2 -1 ------- null}
r -t 1.09084 -s 0 -d 2 -p cbr -e 210 -c 0 -i 8 -a 0 -x {0.0 4.2 8 ------- null}
+ -t 1.09084 -s 2 -d 3 -p cbr -e 210 -c 0 -i 8 -a 0 -x {0.0 4.2 8 ------- null}
- -t 1.09084 -s 2 -d 3 -p cbr -e 210 -c 0 -i 8 -a 0 -x {0.0 4.2 8 ------- null}
h -t 1.09084 -s 2 -d 3 -p cbr -e 210 -c 0 -i 8 -a 0 -x {0.0 4.2 -1 ------- null}
r -t 1.09696 -s 2 -d 3 -p cbr -e 210 -c 0 -i 7 -a 0 -x {0.0 4.2 7 ------- null}
+ -t 1.09696 -s 3 -d 4 -p cbr -e 210 -c 0 -i 7 -a 0 -x {0.0 4.2 7 ------- null}
- -t 1.09696 -s 3 -d 4 -p cbr -e 210 -c 0 -i 7 -a 0 -x {0.0 4.2 7 ------- null}
h -t 1.09696 -s 3 -d 4 -p cbr -e 210 -c 0 -i 7 -a 0 -x {0.0 4.2 -1 ------- null}
r -t 1.0978 -s 3 -d 4 -p cbr -e 210 -c 0 -i 5 -a 0 -x {0.0 4.2 5 ------- null}
+ -t 1.1 -s 0 -d 2 -p cbr -e 210 -c 0 -i 10 -a 0 -x {0.0 4.2 10 ------- null}
- -t 1.1 -s 0 -d 2 -p cbr -e 210 -c 0 -i 10 -a 0 -x {0.0 4.2 10 ------- null}
h -t 1.1 -s 0 -d 2 -p cbr -e 210 -c 0 -i 10 -a 0 -x {0.0 4.2 -1 ------- null}
r -t 1.10084 -s 0 -d 2 -p cbr -e 210 -c 0 -i 9 -a 0 -x {0.0 4.2 9 ------- null}
+ -t 1.10084 -s 2 -d 3 -p cbr -e 210 -c 0 -i 9 -a 0 -x {0.0 4.2 9 ------- null}
- -t 1.10084 -s 2 -d 3 -p cbr -e 210 -c 0 -i 9 -a 0 -x {0.0 4.2 9 ------- null}
h -t 1.10084 -s 2 -d 3 -p cbr -e 210 -c 0 -i 9 -a 0 -x {0.0 4.2 -1 ------- null}
r -t 1.10696 -s 2 -d 3 -p cbr -e 210 -c 0 -i 8 -a 0 -x {0.0 4.2 8 ------- null}
+ -t 1.10696 -s 3 -d 4 -p cbr -e 210 -c 0 -i 8 -a 0 -x {0.0 4.2 8 ------- null}
- -t 1.10696 -s 3 -d 4 -p cbr -e 210 -c 0 -i 8 -a 0 -x {0.0 4.2 8 ------- null}
h -t 1.10696 -s 3 -d 4 -p cbr -e 210 -c 0 -i 8 -a 0 -x {0.0 4.2 -1 ------- null}
r -t 1.1078 -s 3 -d 4 -p cbr -e 210 -c 0 -i 6 -a 0 -x {0.0 4.2 6 ------- null}
+ -t 1.11 -s 0 -d 2 -p cbr -e 210 -c 0 -i 11 -a 0 -x {0.0 4.2 11 ------- null}
- -t 1.11 -s 0 -d 2 -p cbr -e 210 -c 0 -i 11 -a 0 -x {0.0 4.2 11 ------- null}
h -t 1.11 -s 0 -d 2 -p cbr -e 210 -c 0 -i 11 -a 0 -x {0.0 4.2 -1 ------- null}
r -t 1.11084 -s 0 -d 2 -p cbr -e 210 -c 0 -i 10 -a 0 -x {0.0 4.2 10 ------- null}
+ -t 1.11084 -s 2 -d 3 -p cbr -e 210 -c 0 -i 10 -a 0 -x {0.0 4.2 10 ------- null}
- -t 1.11084 -s 2 -d 3 -p cbr -e 210 -c 0 -i 10 -a 0 -x {0.0 4.2 10 ------- null}
h -t 1.11084 -s 2 -d 3 -p cbr -e 210 -c 0 -i 10 -a 0 -x {0.0 4.2 -1 ------- null}
r -t 1.11696 -s 2 -d 3 -p cbr -e 210 -c 0 -i 9 -a 0 -x {0.0 4.2 9 ------- null}
+ -t 1.11696 -s 3 -d 4 -p cbr -e 210 -c 0 -i 9 -a 0 -x {0.0 4.2 9 ------- null}
- -t 1.11696 -s 3 -d 4 -p cbr -e 210 -c 0 -i 9 -a 0 -x {0.0 4.2 9 ------- null}
h -t 1.11696 -s 3 -d 4 -p cbr -e 210 -c 0 -i 9 -a 0 -x {0.0 4.2 -1 ------- null}
r -t 1.1178 -s 3 -d 4 -p cbr -e 210 -c 0 -i 7 -a 0 -x {0.0 4.2 7 ------- null}
+ -t 1.12 -s 0 -d 2 -p cbr -e 210 -c 0 -i 12 -a 0 -x {0.0 4.2 12 ------- null}
- -t 1.12 -s 0 -d 2 -p cbr -e 210 -c 0 -i 12 -a 0 -x {0.0 4.2 12 ------- null}
h -t 1.12 -s 0 -d 2 -p cbr -e 210 -c 0 -i 12 -a 0 -x {0.0 4.2 -1 ------- null}
r -t 1.12084 -s 0 -d 2 -p cbr -e 210 -c 0 -i 11 -a 0 -x {0.0 4.2 11 ------- null}
+ -t 1.12084 -s 2 -d 3 -p cbr -e 210 -c 0 -i 11 -a 0 -x {0.0 4.2 11 ------- null}
- -t 1.12084 -s 2 -d 3 -p cbr -e 210 -c 0 -i 11 -a 0 -x {0.0 4.2 11 ------- null}
h -t 1.12084 -s 2 -d 3 -p cbr -e 210 -c 0 -i 11 -a 0 -x {0.0 4.2 -1 ------- null}
r -t 1.12696 -s 2 -d 3 -p cbr -e 210 -c 0 -i 10 -a 0 -x {0.0 4.2 10 ------- null}
+ -t 1.12696 -s 3 -d 4 -p cbr -e 210 -c 0 -i 10 -a 0 -x {0.0 4.2 10 ------- null}
- -t 1.12696 -s 3 -d 4 -p cbr -e 210 -c 0 -i 10 -a 0 -x {0.0 4.2 10 ------- null}
h -t 1.12696 -s 3 -d 4 -p cbr -e 210 -c 0 -i 10 -a 0 -x {0.0 4.2 -1 ------- null}
r -t 1.1278 -s 3 -d 4 -p cbr -e 210 -c 0 -i 8 -a 0 -x {0.0 4.2 8 ------- null}
+ -t 1.13 -s 0 -d 2 -p cbr -e 210 -c 0 -i 13 -a 0 -x {0.0 4.2 13 ------- null}
- -t 1.13 -s 0 -d 2 -p cbr -e 210 -c 0 -i 13 -a 0 -x {0.0 4.2 13 ------- null}
h -t 1.13 -s 0 -d 2 -p cbr -e 210 -c 0 -i 13 -a 0 -x {0.0 4.2 -1 ------- null}
r -t 1.13084 -s 0 -d 2 -p cbr -e 210 -c 0 -i 12 -a 0 -x {0.0 4.2 12 ------- null}
+ -t 1.13084 -s 2 -d 3 -p cbr -e 210 -c 0 -i 12 -a 0 -x {0.0 4.2 12 ------- null}
- -t 1.13084 -s 2 -d 3 -p cbr -e 210 -c 0 -i 12 -a 0 -x {0.0 4.2 12 ------- null}
h -t 1.13084 -s 2 -d 3 -p cbr -e 210 -c 0 -i 12 -a 0 -x {0.0 4.2 -1 ------- null}
r -t 1.13696 -s 2 -d 3 -p cbr -e 210 -c 0 -i 11 -a 0 -x {0.0 4.2 11 ------- null}
+ -t 1.13696 -s 3 -d 4 -p cbr -e 210 -c 0 -i 11 -a 0 -x {0.0 4.2 11 ------- null}
- -t 1.13696 -s 3 -d 4 -p cbr -e 210 -c 0 -i 11 -a 0 -x {0.0 4.2 11 ------- null}
h -t 1.13696 -s 3 -d 4 -p cbr -e 210 -c 0 -i 11 -a 0 -x {0.0 4.2 -1 ------- null}
r -t 1.1378 -s 3 -d 4 -p cbr -e 210 -c 0 -i 9 -a 0 -x {0.0 4.2 9 ------- null}
+ -t 1.14 -s 0 -d 2 -p cbr -e 210 -c 0 -i 14 -a 0 -x {0.0 4.2 14 ------- null}
- -t 1.14 -s 0 -d 2 -p cbr -e 210 -c 0 -i 14 -a 0 -x {0.0 4.2 14 ------- null}
h -t 1.14 -s 0 -d 2 -p cbr -e 210 -c 0 -i 14 -a 0 -x {0.0 4.2 -1 ------- null}
r -t 1.14084 -s 0 -d 2 -p cbr -e 210 -c 0 -i 13 -a 0 -x {0.0 4.2 13 ------- null}
+ -t 1.14084 -s 2 -d 3 -p cbr -e 210 -c 0 -i 13 -a 0 -x {0.0 4.2 13 ------- null}
- -t 1.14084 -s 2 -d 3 -p cbr -e 210 -c 0 -i 13 -a 0 -x {0.0 4.2 13 ------- null}
h -t 1.14084 -s 2 -d 3 -p cbr -e 210 -c 0 -i 13 -a 0 -x {0.0 4.2 -1 ------- null}
r -t 1.14696 -s 2 -d 3 -p cbr -e 210 -c 0 -i 12 -a 0 -x {0.0 4.2 12 ------- null}
+ -t 1.14696 -s 3 -d 4 -p cbr -e 210 -c 0 -i 12 -a 0 -x {0.0 4.2 12 ------- null}
- -t 1.14696 -s 3 -d 4 -p cbr -e 210 -c 0 -i 12 -a 0 -x {0.0 4.2 12 ------- null}
h -t 1.14696 -s 3 -d 4 -p cbr -e 210 -c 0 -i 12 -a 0 -x {0.0 4.2 -1 ------- null}
r -t 1.1478 -s 3 -d 4 -p cbr -e 210 -c 0 -i 10 -a 0 -x {0.0 4.2 10 ------- null}
+ -t 1.15 -s 0 -d 2 -p cbr -e 210 -c 0 -i 15 -a 0 -x {0.0 4.2 15 ------- null}
- -t 1.15 -s 0 -d 2 -p cbr -e 210 -c 0 -i 15 -a 0 -x {0.0 4.2 15 ------- null}
h -t 1.15 -s 0 -d 2 -p cbr -e 210 -c 0 -i 15 -a 0 -x {0.0 4.2 -1 ------- null}
r -t 1.15084 -s 0 -d 2 -p cbr -e 210 -c 0 -i 14 -a 0 -x {0.0 4.2 14 ------- null}
+ -t 1.15084 -s 2 -d 3 -p cbr -e 210 -c 0 -i 14 -a 0 -x {0.0 4.2 14 ------- null}
- -t 1.15084 -s 2 -d 3 -p cbr -e 210 -c 0 -i 14 -a 0 -x {0.0 4.2 14 ------- null}
h -t 1.15084 -s 2 -d 3 -p cbr -e 210 -c 0 -i 14 -a 0 -x {0.0 4.2 -1 ------- null}
r -t 1.15696 -s 2 -d 3 -p cbr -e 210 -c 0 -i 13 -a 0 -x {0.0 4.2 13 ------- null}
+ -t 1.15696 -s 3 -d 4 -p cbr -e 210 -c 0 -i 13 -a 0 -x {0.0 4.2 13 ------- null}
- -t 1.15696 -s 3 -d 4 -p cbr -e 210 -c 0 -i 13 -a 0 -x {0.0 4.2 13 ------- null}
h -t 1.15696 -s 3 -d 4 -p cbr -e 210 -c 0 -i 13 -a 0 -x {0.0 4.2 -1 ------- null}
r -t 1.1578 -s 3 -d 4 -p cbr -e 210 -c 0 -i 11 -a 0 -x {0.0 4.2 11 ------- null}
+ -t 1.16 -s 0 -d 2 -p cbr -e 210 -c 0 -i 16 -a 0 -x {0.0 4.2 16 ------- null}
- -t 1.16 -s 0 -d 2 -p cbr -e 210 -c 0 -i 16 -a 0 -x {0.0 4.2 16 ------- null}
h -t 1.16 -s 0 -d 2 -p cbr -e 210 -c 0 -i 16 -a 0 -x {0.0 4.2 -1 ------- null}
r -t 1.16084 -s 0 -d 2 -p cbr -e 210 -c 0 -i 15 -a 0 -x {0.0 4.2 15 ------- null}
+ -t 1.16084 -s 2 -d 3 -p cbr -e 210 -c 0 -i 15 -a 0 -x {0.0 4.2 15 ------- null}
- -t 1.16084 -s 2 -d 3 -p cbr -e 210 -c 0 -i 15 -a 0 -x {0.0 4.2 15 ------- null}
h -t 1.16084 -s 2 -d 3 -p cbr -e 210 -c 0 -i 15 -a 0 -x {0.0 4.2 -1 ------- null}
r -t 1.16696 -s 2 -d 3 -p cbr -e 210 -c 0 -i 14 -a 0 -x {0.0 4.2 14 ------- null}
+ -t 1.16696 -s 3 -d 4 -p cbr -e 210 -c 0 -i 14 -a 0 -x {0.0 4.2 14 ------- null}
- -t 1.16696 -s 3 -d 4 -p cbr -e 210 -c 0 -i 14 -a 0 -x {0.0 4.2 14 ------- null}
h -t 1.16696 -s 3 -d 4 -p cbr -e 210 -c 0 -i 14 -a 0 -x {0.0 4.2 -1 ------- null}
r -t 1.1678 -s 3 -d 4 -p cbr -e 210 -c 0 -i 12 -a 0 -x {0.0 4.2 12 ------- null}
+ -t 1.17 -s 0 -d 2 -p cbr -e 210 -c 0 -i 17 -a 0 -x {0.0 4.2 17 ------- null}
- -t 1.17 -s 0 -d 2 -p cbr -e 210 -c 0 -i 17 -a 0 -x {0.0 4.2 17 ------- null}
h -t 1.17 -s 0 -d 2 -p cbr -e 210 -c 0 -i 17 -a 0 -x {0.0 4.2 -1 ------- null}
r -t 1.17084 -s 0 -d 2 -p cbr -e 210 -c 0 -i 16 -a 0 -x {0.0 4.2 16 ------- null}
+ -t 1.17084 -s 2 -d 3 -p cbr -e 210 -c 0 -i 16 -a 0 -x {0.0 4.2 16 ------- null}
- -t 1.17084 -s 2 -d 3 -p cbr -e 210 -c 0 -i 16 -a 0 -x {0.0 4.2 16 ------- null}
h -t 1.17084 -s 2 -d 3 -p cbr -e 210 -c 0 -i 16 -a 0 -x {0.0 4.2 -1 ------- null}
r -t 1.17696 -s 2 -d 3 -p cbr -e 210 -c 0 -i 15 -a 0 -x {0.0 4.2 15 ------- null}
+ -t 1.17696 -s 3 -d 4 -p cbr -e 210 -c 0 -i 15 -a 0 -x {0.0 4.2 15 ------- null}
- -t 1.17696 -s 3 -d 4 -p cbr -e 210 -c 0 -i 15 -a 0 -x {0.0 4.2 15 ------- null}
h -t 1.17696 -s 3 -d 4 -p cbr -e 210 -c 0 -i 15 -a 0 -x {0.0 4.2 -1 ------- null}
r -t 1.1778 -s 3 -d 4 -p cbr -e 210 -c 0 -i 13 -a 0 -x {0.0 4.2 13 ------- null}
+ -t 1.18 -s 0 -d 2 -p cbr -e 210 -c 0 -i 18 -a 0 -x {0.0 4.2 18 ------- null}
- -t 1.18 -s 0 -d 2 -p cbr -e 210 -c 0 -i 18 -a 0 -x {0.0 4.2 18 ------- null}
h -t 1.18 -s 0 -d 2 -p cbr -e 210 -c 0 -i 18 -a 0 -x {0.0 4.2 -1 ------- null}
r -t 1.18084 -s 0 -d 2 -p cbr -e 210 -c 0 -i 17 -a 0 -x {0.0 4.2 17 ------- null}
+ -t 1.18084 -s 2 -d 3 -p cbr -e 210 -c 0 -i 17 -a 0 -x {0.0 4.2 17 ------- null}
- -t 1.18084 -s 2 -d 3 -p cbr -e 210 -c 0 -i 17 -a 0 -x {0.0 4.2 17 ------- null}
h -t 1.18084 -s 2 -d 3 -p cbr -e 210 -c 0 -i 17 -a 0 -x {0.0 4.2 -1 ------- null}
r -t 1.18696 -s 2 -d 3 -p cbr -e 210 -c 0 -i 16 -a 0 -x {0.0 4.2 16 ------- null}
+ -t 1.18696 -s 3 -d 4 -p cbr -e 210 -c 0 -i 16 -a 0 -x {0.0 4.2 16 ------- null}
- -t 1.18696 -s 3 -d 4 -p cbr -e 210 -c 0 -i 16 -a 0 -x {0.0 4.2 16 ------- null}
h -t 1.18696 -s 3 -d 4 -p cbr -e 210 -c 0 -i 16 -a 0 -x {0.0 4.2 -1 ------- null}
r -t 1.1878 -s 3 -d 4 -p cbr -e 210 -c 0 -i 14 -a 0 -x {0.0 4.2 14 ------- null}
+ -t 1.19 -s 0 -d 2 -p cbr -e 210 -c 0 -i 19 -a 0 -x {0.0 4.2 19 ------- null}
- -t 1.19 -s 0 -d 2 -p cbr -e 210 -c 0 -i 19 -a 0 -x {0.0 4.2 19 ------- null}
h -t 1.19 -s 0 -d 2 -p cbr -e 210 -c 0 -i 19 -a 0 -x {0.0 4.2 -1 ------- null}
r -t 1.19084 -s 0 -d 2 -p cbr -e 210 -c 0 -i 18 -a 0 -x {0.0 4.2 18 ------- null}
+ -t 1.19084 -s 2 -d 3 -p cbr -e 210 -c 0 -i 18 -a 0 -x {0.0 4.2 18 ------- null}
- -t 1.19084 -s 2 -d 3 -p cbr -e 210 -c 0 -i 18 -a 0 -x {0.0 4.2 18 ------- null}
h -t 1.19084 -s 2 -d 3 -p cbr -e 210 -c 0 -i 18 -a 0 -x {0.0 4.2 -1 ------- null}
r -t 1.19696 -s 2 -d 3 -p cbr -e 210 -c 0 -i 17 -a 0 -x {0.0 4.2 17 ------- null}
+ -t 1.19696 -s 3 -d 4 -p cbr -e 210 -c 0 -i 17 -a 0 -x {0.0 4.2 17 ------- null}
- -t 1.19696 -s 3 -d 4 -p cbr -e 210 -c 0 -i 17 -a 0 -x {0.0 4.2 17 ------- null}
h -t 1.19696 -s 3 -d 4 -p cbr -e 210 -c 0 -i 17 -a 0 -x {0.0 4.2 -1 ------- null}
r -t 1.1978 -s 3 -d 4 -p cbr -e 210 -c 0 -i 15 -a 0 -x {0.0 4.2 15 ------- null}
+ -t 1.2 -s 0 -d 2 -p cbr -e 210 -c 0 -i 20 -a 0 -x {0.0 4.2 20 ------- null}
- -t 1.2 -s 0 -d 2 -p cbr -e 210 -c 0 -i 20 -a 0 -x {0.0 4.2 20 ------- null}
h -t 1.2 -s 0 -d 2 -p cbr -e 210 -c 0 -i 20 -a 0 -x {0.0 4.2 -1 ------- null}
r -t 1.20084 -s 0 -d 2 -p cbr -e 210 -c 0 -i 19 -a 0 -x {0.0 4.2 19 ------- null}
+ -t 1.20084 -s 2 -d 3 -p cbr -e 210 -c 0 -i 19 -a 0 -x {0.0 4.2 19 ------- null}
- -t 1.20084 -s 2 -d 3 -p cbr -e 210 -c 0 -i 19 -a 0 -x {0.0 4.2 19 ------- null}
h -t 1.20084 -s 2 -d 3 -p cbr -e 210 -c 0 -i 19 -a 0 -x {0.0 4.2 -1 ------- null}
r -t 1.20696 -s 2 -d 3 -p cbr -e 210 -c 0 -i 18 -a 0 -x {0.0 4.2 18 ------- null}
+ -t 1.20696 -s 3 -d 4 -p cbr -e 210 -c 0 -i 18 -a 0 -x {0.0 4.2 18 ------- null}
- -t 1.20696 -s 3 -d 4 -p cbr -e 210 -c 0 -i 18 -a 0 -x {0.0 4.2 18 ------- null}
h -t 1.20696 -s 3 -d 4 -p cbr -e 210 -c 0 -i 18 -a 0 -x {0.0 4.2 -1 ------- null}
r -t 1.2078 -s 3 -d 4 -p cbr -e 210 -c 0 -i 16 -a 0 -x {0.0 4.2 16 ------- null}
+ -t 1.21 -s 0 -d 2 -p cbr -e 210 -c 0 -i 21 -a 0 -x {0.0 4.2 21 ------- null}
- -t 1.21 -s 0 -d 2 -p cbr -e 210 -c 0 -i 21 -a 0 -x {0.0 4.2 21 ------- null}
h -t 1.21 -s 0 -d 2 -p cbr -e 210 -c 0 -i 21 -a 0 -x {0.0 4.2 -1 ------- null}
r -t 1.21084 -s 0 -d 2 -p cbr -e 210 -c 0 -i 20 -a 0 -x {0.0 4.2 20 ------- null}
+ -t 1.21084 -s 2 -d 3 -p cbr -e 210 -c 0 -i 20 -a 0 -x {0.0 4.2 20 ------- null}
- -t 1.21084 -s 2 -d 3 -p cbr -e 210 -c 0 -i 20 -a 0 -x {0.0 4.2 20 ------- null}
h -t 1.21084 -s 2 -d 3 -p cbr -e 210 -c 0 -i 20 -a 0 -x {0.0 4.2 -1 ------- null}
r -t 1.21696 -s 2 -d 3 -p cbr -e 210 -c 0 -i 19 -a 0 -x {0.0 4.2 19 ------- null}
+ -t 1.21696 -s 3 -d 4 -p cbr -e 210 -c 0 -i 19 -a 0 -x {0.0 4.2 19 ------- null}
- -t 1.21696 -s 3 -d 4 -p cbr -e 210 -c 0 -i 19 -a 0 -x {0.0 4.2 19 ------- null}
h -t 1.21696 -s 3 -d 4 -p cbr -e 210 -c 0 -i 19 -a 0 -x {0.0 4.2 -1 ------- null}
r -t 1.2178 -s 3 -d 4 -p cbr -e 210 -c 0 -i 17 -a 0 -x {0.0 4.2 17 ------- null}
+ -t 1.22 -s 0 -d 2 -p cbr -e 210 -c 0 -i 22 -a 0 -x {0.0 4.2 22 ------- null}
- -t 1.22 -s 0 -d 2 -p cbr -e 210 -c 0 -i 22 -a 0 -x {0.0 4.2 22 ------- null}
h -t 1.22 -s 0 -d 2 -p cbr -e 210 -c 0 -i 22 -a 0 -x {0.0 4.2 -1 ------- null}
r -t 1.22084 -s 0 -d 2 -p cbr -e 210 -c 0 -i 21 -a 0 -x {0.0 4.2 21 ------- null}
+ -t 1.22084 -s 2 -d 3 -p cbr -e 210 -c 0 -i 21 -a 0 -x {0.0 4.2 21 ------- null}
- -t 1.22084 -s 2 -d 3 -p cbr -e 210 -c 0 -i 21 -a 0 -x {0.0 4.2 21 ------- null}
h -t 1.22084 -s 2 -d 3 -p cbr -e 210 -c 0 -i 21 -a 0 -x {0.0 4.2 -1 ------- null}
r -t 1.22696 -s 2 -d 3 -p cbr -e 210 -c 0 -i 20 -a 0 -x {0.0 4.2 20 ------- null}
+ -t 1.22696 -s 3 -d 4 -p cbr -e 210 -c 0 -i 20 -a 0 -x {0.0 4.2 20 ------- null}
- -t 1.22696 -s 3 -d 4 -p cbr -e 210 -c 0 -i 20 -a 0 -x {0.0 4.2 20 ------- null}
h -t 1.22696 -s 3 -d 4 -p cbr -e 210 -c 0 -i 20 -a 0 -x {0.0 4.2 -1 ------- null}
r -t 1.2278 -s 3 -d 4 -p cbr -e 210 -c 0 -i 18 -a 0 -x {0.0 4.2 18 ------- null}
+ -t 1.23 -s 0 -d 2 -p cbr -e 210 -c 0 -i 23 -a 0 -x {0.0 4.2 23 ------- null}
- -t 1.23 -s 0 -d 2 -p cbr -e 210 -c 0 -i 23 -a 0 -x {0.0 4.2 23 ------- null}
h -t 1.23 -s 0 -d 2 -p cbr -e 210 -c 0 -i 23 -a 0 -x {0.0 4.2 -1 ------- null}
r -t 1.23084 -s 0 -d 2 -p cbr -e 210 -c 0 -i 22 -a 0 -x {0.0 4.2 22 ------- null}
+ -t 1.23084 -s 2 -d 3 -p cbr -e 210 -c 0 -i 22 -a 0 -x {0.0 4.2 22 ------- null}
- -t 1.23084 -s 2 -d 3 -p cbr -e 210 -c 0 -i 22 -a 0 -x {0.0 4.2 22 ------- null}
h -t 1.23084 -s 2 -d 3 -p cbr -e 210 -c 0 -i 22 -a 0 -x {0.0 4.2 -1 ------- null}
r -t 1.23696 -s 2 -d 3 -p cbr -e 210 -c 0 -i 21 -a 0 -x {0.0 4.2 21 ------- null}
+ -t 1.23696 -s 3 -d 4 -p cbr -e 210 -c 0 -i 21 -a 0 -x {0.0 4.2 21 ------- null}
- -t 1.23696 -s 3 -d 4 -p cbr -e 210 -c 0 -i 21 -a 0 -x {0.0 4.2 21 ------- null}
h -t 1.23696 -s 3 -d 4 -p cbr -e 210 -c 0 -i 21 -a 0 -x {0.0 4.2 -1 ------- null}
r -t 1.2378 -s 3 -d 4 -p cbr -e 210 -c 0 -i 19 -a 0 -x {0.0 4.2 19 ------- null}
+ -t 1.24 -s 0 -d 2 -p cbr -e 210 -c 0 -i 24 -a 0 -x {0.0 4.2 24 ------- null}
- -t 1.24 -s 0 -d 2 -p cbr -e 210 -c 0 -i 24 -a 0 -x {0.0 4.2 24 ------- null}
h -t 1.24 -s 0 -d 2 -p cbr -e 210 -c 0 -i 24 -a 0 -x {0.0 4.2 -1 ------- null}
r -t 1.24084 -s 0 -d 2 -p cbr -e 210 -c 0 -i 23 -a 0 -x {0.0 4.2 23 ------- null}
+ -t 1.24084 -s 2 -d 3 -p cbr -e 210 -c 0 -i 23 -a 0 -x {0.0 4.2 23 ------- null}
- -t 1.24084 -s 2 -d 3 -p cbr -e 210 -c 0 -i 23 -a 0 -x {0.0 4.2 23 ------- null}
h -t 1.24084 -s 2 -d 3 -p cbr -e 210 -c 0 -i 23 -a 0 -x {0.0 4.2 -1 ------- null}
r -t 1.24696 -s 2 -d 3 -p cbr -e 210 -c 0 -i 22 -a 0 -x {0.0 4.2 22 ------- null}
+ -t 1.24696 -s 3 -d 4 -p cbr -e 210 -c 0 -i 22 -a 0 -x {0.0 4.2 22 ------- null}
- -t 1.24696 -s 3 -d 4 -p cbr -e 210 -c 0 -i 22 -a 0 -x {0.0 4.2 22 ------- null}
h -t 1.24696 -s 3 -d 4 -p cbr -e 210 -c 0 -i 22 -a 0 -x {0.0 4.2 -1 ------- null}
r -t 1.2478 -s 3 -d 4 -p cbr -e 210 -c 0 -i 20 -a 0 -x {0.0 4.2 20 ------- null}
+ -t 1.25 -s 0 -d 2 -p cbr -e 210 -c 0 -i 25 -a 0 -x {0.0 4.2 25 ------- null}
- -t 1.25 -s 0 -d 2 -p cbr -e 210 -c 0 -i 25 -a 0 -x {0.0 4.2 25 ------- null}
h -t 1.25 -s 0 -d 2 -p cbr -e 210 -c 0 -i 25 -a 0 -x {0.0 4.2 -1 ------- null}
r -t 1.25084 -s 0 -d 2 -p cbr -e 210 -c 0 -i 24 -a 0 -x {0.0 4.2 24 ------- null}
+ -t 1.25084 -s 2 -d 3 -p cbr -e 210 -c 0 -i 24 -a 0 -x {0.0 4.2 24 ------- null}
- -t 1.25084 -s 2 -d 3 -p cbr -e 210 -c 0 -i 24 -a 0 -x {0.0 4.2 24 ------- null}
h -t 1.25084 -s 2 -d 3 -p cbr -e 210 -c 0 -i 24 -a 0 -x {0.0 4.2 -1 ------- null}
r -t 1.25696 -s 2 -d 3 -p cbr -e 210 -c 0 -i 23 -a 0 -x {0.0 4.2 23 ------- null}
+ -t 1.25696 -s 3 -d 4 -p cbr -e 210 -c 0 -i 23 -a 0 -x {0.0 4.2 23 ------- null}
- -t 1.25696 -s 3 -d 4 -p cbr -e 210 -c 0 -i 23 -a 0 -x {0.0 4.2 23 ------- null}
h -t 1.25696 -s 3 -d 4 -p cbr -e 210 -c 0 -i 23 -a 0 -x {0.0 4.2 -1 ------- null}
r -t 1.2578 -s 3 -d 4 -p cbr -e 210 -c 0 -i 21 -a 0 -x {0.0 4.2 21 ------- null}
+ -t 1.26 -s 0 -d 2 -p cbr -e 210 -c 0 -i 26 -a 0 -x {0.0 4.2 26 ------- null}
- -t 1.26 -s 0 -d 2 -p cbr -e 210 -c 0 -i 26 -a 0 -x {0.0 4.2 26 ------- null}
h -t 1.26 -s 0 -d 2 -p cbr -e 210 -c 0 -i 26 -a 0 -x {0.0 4.2 -1 ------- null}
r -t 1.26084 -s 0 -d 2 -p cbr -e 210 -c 0 -i 25 -a 0 -x {0.0 4.2 25 ------- null}
+ -t 1.26084 -s 2 -d 3 -p cbr -e 210 -c 0 -i 25 -a 0 -x {0.0 4.2 25 ------- null}
- -t 1.26084 -s 2 -d 3 -p cbr -e 210 -c 0 -i 25 -a 0 -x {0.0 4.2 25 ------- null}
h -t 1.26084 -s 2 -d 3 -p cbr -e 210 -c 0 -i 25 -a 0 -x {0.0 4.2 -1 ------- null}
r -t 1.26696 -s 2 -d 3 -p cbr -e 210 -c 0 -i 24 -a 0 -x {0.0 4.2 24 ------- null}
+ -t 1.26696 -s 3 -d 4 -p cbr -e 210 -c 0 -i 24 -a 0 -x {0.0 4.2 24 ------- null}
- -t 1.26696 -s 3 -d 4 -p cbr -e 210 -c 0 -i 24 -a 0 -x {0.0 4.2 24 ------- null}
h -t 1.26696 -s 3 -d 4 -p cbr -e 210 -c 0 -i 24 -a 0 -x {0.0 4.2 -1 ------- null}
r -t 1.2678 -s 3 -d 4 -p cbr -e 210 -c 0 -i 22 -a 0 -x {0.0 4.2 22 ------- null}
+ -t 1.27 -s 0 -d 2 -p cbr -e 210 -c 0 -i 27 -a 0 -x {0.0 4.2 27 ------- null}
- -t 1.27 -s 0 -d 2 -p cbr -e 210 -c 0 -i 27 -a 0 -x {0.0 4.2 27 ------- null}
h -t 1.27 -s 0 -d 2 -p cbr -e 210 -c 0 -i 27 -a 0 -x {0.0 4.2 -1 ------- null}
r -t 1.27084 -s 0 -d 2 -p cbr -e 210 -c 0 -i 26 -a 0 -x {0.0 4.2 26 ------- null}
+ -t 1.27084 -s 2 -d 3 -p cbr -e 210 -c 0 -i 26 -a 0 -x {0.0 4.2 26 ------- null}
- -t 1.27084 -s 2 -d 3 -p cbr -e 210 -c 0 -i 26 -a 0 -x {0.0 4.2 26 ------- null}
h -t 1.27084 -s 2 -d 3 -p cbr -e 210 -c 0 -i 26 -a 0 -x {0.0 4.2 -1 ------- null}
r -t 1.27696 -s 2 -d 3 -p cbr -e 210 -c 0 -i 25 -a 0 -x {0.0 4.2 25 ------- null}
+ -t 1.27696 -s 3 -d 4 -p cbr -e 210 -c 0 -i 25 -a 0 -x {0.0 4.2 25 ------- null}
- -t 1.27696 -s 3 -d 4 -p cbr -e 210 -c 0 -i 25 -a 0 -x {0.0 4.2 25 ------- null}
h -t 1.27696 -s 3 -d 4 -p cbr -e 210 -c 0 -i 25 -a 0 -x {0.0 4.2 -1 ------- null}
r -t 1.2778 -s 3 -d 4 -p cbr -e 210 -c 0 -i 23 -a 0 -x {0.0 4.2 23 ------- null}
+ -t 1.28 -s 0 -d 2 -p cbr -e 210 -c 0 -i 28 -a 0 -x {0.0 4.2 28 ------- null}
- -t 1.28 -s 0 -d 2 -p cbr -e 210 -c 0 -i 28 -a 0 -x {0.0 4.2 28 ------- null}
h -t 1.28 -s 0 -d 2 -p cbr -e 210 -c 0 -i 28 -a 0 -x {0.0 4.2 -1 ------- null}
r -t 1.28084 -s 0 -d 2 -p cbr -e 210 -c 0 -i 27 -a 0 -x {0.0 4.2 27 ------- null}
+ -t 1.28084 -s 2 -d 3 -p cbr -e 210 -c 0 -i 27 -a 0 -x {0.0 4.2 27 ------- null}
- -t 1.28084 -s 2 -d 3 -p cbr -e 210 -c 0 -i 27 -a 0 -x {0.0 4.2 27 ------- null}
h -t 1.28084 -s 2 -d 3 -p cbr -e 210 -c 0 -i 27 -a 0 -x {0.0 4.2 -1 ------- null}
r -t 1.28696 -s 2 -d 3 -p cbr -e 210 -c 0 -i 26 -a 0 -x {0.0 4.2 26 ------- null}
+ -t 1.28696 -s 3 -d 4 -p cbr -e 210 -c 0 -i 26 -a 0 -x {0.0 4.2 26 ------- null}
- -t 1.28696 -s 3 -d 4 -p cbr -e 210 -c 0 -i 26 -a 0 -x {0.0 4.2 26 ------- null}
h -t 1.28696 -s 3 -d 4 -p cbr -e 210 -c 0 -i 26 -a 0 -x {0.0 4.2 -1 ------- null}
r -t 1.2878 -s 3 -d 4 -p cbr -e 210 -c 0 -i 24 -a 0 -x {0.0 4.2 24 ------- null}
+ -t 1.29 -s 0 -d 2 -p cbr -e 210 -c 0 -i 29 -a 0 -x {0.0 4.2 29 ------- null}
- -t 1.29 -s 0 -d 2 -p cbr -e 210 -c 0 -i 29 -a 0 -x {0.0 4.2 29 ------- null}
h -t 1.29 -s 0 -d 2 -p cbr -e 210 -c 0 -i 29 -a 0 -x {0.0 4.2 -1 ------- null}
r -t 1.29084 -s 0 -d 2 -p cbr -e 210 -c 0 -i 28 -a 0 -x {0.0 4.2 28 ------- null}
+ -t 1.29084 -s 2 -d 3 -p cbr -e 210 -c 0 -i 28 -a 0 -x {0.0 4.2 28 ------- null}
- -t 1.29084 -s 2 -d 3 -p cbr -e 210 -c 0 -i 28 -a 0 -x {0.0 4.2 28 ------- null}
h -t 1.29084 -s 2 -d 3 -p cbr -e 210 -c 0 -i 28 -a 0 -x {0.0 4.2 -1 ------- null}
r -t 1.29696 -s 2 -d 3 -p cbr -e 210 -c 0 -i 27 -a 0 -x {0.0 4.2 27 ------- null}
+ -t 1.29696 -s 3 -d 4 -p cbr -e 210 -c 0 -i 27 -a 0 -x {0.0 4.2 27 ------- null}
- -t 1.29696 -s 3 -d 4 -p cbr -e 210 -c 0 -i 27 -a 0 -x {0.0 4.2 27 ------- null}
h -t 1.29696 -s 3 -d 4 -p cbr -e 210 -c 0 -i 27 -a 0 -x {0.0 4.2 -1 ------- null}
r -t 1.2978 -s 3 -d 4 -p cbr -e 210 -c 0 -i 25 -a 0 -x {0.0 4.2 25 ------- null}
+ -t 1.3 -s 0 -d 2 -p cbr -e 210 -c 0 -i 30 -a 0 -x {0.0 4.2 30 ------- null}
- -t 1.3 -s 0 -d 2 -p cbr -e 210 -c 0 -i 30 -a 0 -x {0.0 4.2 30 ------- null}
h -t 1.3 -s 0 -d 2 -p cbr -e 210 -c 0 -i 30 -a 0 -x {0.0 4.2 -1 ------- null}
r -t 1.30084 -s 0 -d 2 -p cbr -e 210 -c 0 -i 29 -a 0 -x {0.0 4.2 29 ------- null}
+ -t 1.30084 -s 2 -d 3 -p cbr -e 210 -c 0 -i 29 -a 0 -x {0.0 4.2 29 ------- null}
- -t 1.30084 -s 2 -d 3 -p cbr -e 210 -c 0 -i 29 -a 0 -x {0.0 4.2 29 ------- null}
h -t 1.30084 -s 2 -d 3 -p cbr -e 210 -c 0 -i 29 -a 0 -x {0.0 4.2 -1 ------- null}
r -t 1.30696 -s 2 -d 3 -p cbr -e 210 -c 0 -i 28 -a 0 -x {0.0 4.2 28 ------- null}
+ -t 1.30696 -s 3 -d 4 -p cbr -e 210 -c 0 -i 28 -a 0 -x {0.0 4.2 28 ------- null}
- -t 1.30696 -s 3 -d 4 -p cbr -e 210 -c 0 -i 28 -a 0 -x {0.0 4.2 28 ------- null}
h -t 1.30696 -s 3 -d 4 -p cbr -e 210 -c 0 -i 28 -a 0 -x {0.0 4.2 -1 ------- null}
r -t 1.3078 -s 3 -d 4 -p cbr -e 210 -c 0 -i 26 -a 0 -x {0.0 4.2 26 ------- null}
+ -t 1.31 -s 0 -d 2 -p cbr -e 210 -c 0 -i 31 -a 0 -x {0.0 4.2 31 ------- null}
- -t 1.31 -s 0 -d 2 -p cbr -e 210 -c 0 -i 31 -a 0 -x {0.0 4.2 31 ------- null}
h -t 1.31 -s 0 -d 2 -p cbr -e 210 -c 0 -i 31 -a 0 -x {0.0 4.2 -1 ------- null}
r -t 1.31084 -s 0 -d 2 -p cbr -e 210 -c 0 -i 30 -a 0 -x {0.0 4.2 30 ------- null}
+ -t 1.31084 -s 2 -d 3 -p cbr -e 210 -c 0 -i 30 -a 0 -x {0.0 4.2 30 ------- null}
- -t 1.31084 -s 2 -d 3 -p cbr -e 210 -c 0 -i 30 -a 0 -x {0.0 4.2 30 ------- null}
h -t 1.31084 -s 2 -d 3 -p cbr -e 210 -c 0 -i 30 -a 0 -x {0.0 4.2 -1 ------- null}