V -t * -v 1.0a5 -a 0
A -t * -n 1 -p 0 -o 0x7fffffff -c 30 -a 1
A -t * -h 1 -m 1073741823 -s 0
n -t * -a 0 -s 0 -S UP -v square -c black -i black
n -t * -a 1 -s 1 -S UP -v square -c black -i black
n -t * -a 2 -s 2 -S UP -v square -c black -i black
n -t * -a 3 -s 3 -S UP -v circle -c black -i black
l -t * -s 0 -d 2 -S UP -r 3000000 -D 0.014999999999999999 -c black -o right-up
l -t * -s 2 -d 3 -S UP -r 2000000 -D 0.02 -c black -o right
l -t * -s 1 -d 2 -S UP -r 1500000 -D 0.014999999999999999 -c black -o right-down
+ -t 1 -s 0 -d 2 -p cbr -e 210 -c 0 -i 0 -a 0 -x {0.0 3.0 0 ------- null}
- -t 1 -s 0 -d 2 -p cbr -e 210 -c 0 -i 0 -a 0 -x {0.0 3.0 0 ------- null}
h -t 1 -s 0 -d 2 -p cbr -e 210 -c 0 -i 0 -a 0 -x {0.0 3.0 -1 ------- null}
+ -t 1.01 -s 0 -d 2 -p cbr -e 210 -c 0 -i 1 -a 0 -x {0.0 3.0 1 ------- null}
- -t 1.01 -s 0 -d 2 -p cbr -e 210 -c 0 -i 1 -a 0 -x {0.0 3.0 1 ------- null}
h -t 1.01 -s 0 -d 2 -p cbr -e 210 -c 0 -i 1 -a 0 -x {0.0 3.0 -1 ------- null}
r -t 1.01556 -s 0 -d 2 -p cbr -e 210 -c 0 -i 0 -a 0 -x {0.0 3.0 0 ------- null}
+ -t 1.01556 -s 2 -d 3 -p cbr -e 210 -c 0 -i 0 -a 0 -x {0.0 3.0 0 ------- null}
- -t 1.01556 -s 2 -d 3 -p cbr -e 210 -c 0 -i 0 -a 0 -x {0.0 3.0 0 ------- null}
h -t 1.01556 -s 2 -d 3 -p cbr -e 210 -c 0 -i 0 -a 0 -x {0.0 3.0 -1 ------- null}
+ -t 1.02 -s 0 -d 2 -p cbr -e 210 -c 0 -i 2 -a 0 -x {0.0 3.0 2 ------- null}
- -t 1.02 -s 0 -d 2 -p cbr -e 210 -c 0 -i 2 -a 0 -x {0.0 3.0 2 ------- null}
h -t 1.02 -s 0 -d 2 -p cbr -e 210 -c 0 -i 2 -a 0 -x {0.0 3.0 -1 ------- null}
r -t 1.02556 -s 0 -d 2 -p cbr -e 210 -c 0 -i 1 -a 0 -x {0.0 3.0 1 ------- null}
+ -t 1.02556 -s 2 -d 3 -p cbr -e 210 -c 0 -i 1 -a 0 -x {0.0 3.0 1 ------- null}
- -t 1.02556 -s 2 -d 3 -p cbr -e 210 -c 0 -i 1 -a 0 -x {0.0 3.0 1 ------- null}
h -t 1.02556 -s 2 -d 3 -p cbr -e 210 -c 0 -i 1 -a 0 -x {0.0 3.0 -1 ------- null}
+ -t 1.03 -s 0 -d 2 -p cbr -e 210 -c 0 -i 3 -a 0 -x {0.0 3.0 3 ------- null}
- -t 1.03 -s 0 -d 2 -p cbr -e 210 -c 0 -i 3 -a 0 -x {0.0 3.0 3 ------- null}
h -t 1.03 -s 0 -d 2 -p cbr -e 210 -c 0 -i 3 -a 0 -x {0.0 3.0 -1 ------- null}
r -t 1.03556 -s 0 -d 2 -p cbr -e 210 -c 0 -i 2 -a 0 -x {0.0 3.0 2 ------- null}
+ -t 1.03556 -s 2 -d 3 -p cbr -e 210 -c 0 -i 2 -a 0 -x {0.0 3.0 2 ------- null}
- -t 1.03556 -s 2 -d 3 -p cbr -e 210 -c 0 -i 2 -a 0 -x {0.0 3.0 2 ------- null}
h -t 1.03556 -s 2 -d 3 -p cbr -e 210 -c 0 -i 2 -a 0 -x {0.0 3.0 -1 ------- null}
r -t 1.0364 -s 2 -d 3 -p cbr -e 210 -c 0 -i 0 -a 0 -x {0.0 3.0 0 ------- null}
+ -t 1.04 -s 0 -d 2 -p cbr -e 210 -c 0 -i 4 -a 0 -x {0.0 3.0 4 ------- null}
- -t 1.04 -s 0 -d 2 -p cbr -e 210 -c 0 -i 4 -a 0 -x {0.0 3.0 4 ------- null}
h -t 1.04 -s 0 -d 2 -p cbr -e 210 -c 0 -i 4 -a 0 -x {0.0 3.0 -1 ------- null}
r -t 1.04556 -s 0 -d 2 -p cbr -e 210 -c 0 -i 3 -a 0 -x {0.0 3.0 3 ------- null}
+ -t 1.04556 -s 2 -d 3 -p cbr -e 210 -c 0 -i 3 -a 0 -x {0.0 3.0 3 ------- null}
- -t 1.04556 -s 2 -d 3 -p cbr -e 210 -c 0 -i 3 -a 0 -x {0.0 3.0 3 ------- null}
h -t 1.04556 -s 2 -d 3 -p cbr -e 210 -c 0 -i 3 -a 0 -x {0.0 3.0 -1 ------- null}
r -t 1.0464 -s 2 -d 3 -p cbr -e 210 -c 0 -i 1 -a 0 -x {0.0 3.0 1 ------- null}
+ -t 1.05 -s 0 -d 2 -p cbr -e 210 -c 0 -i 5 -a 0 -x {0.0 3.0 5 ------- null}
- -t 1.05 -s 0 -d 2 -p cbr -e 210 -c 0 -i 5 -a 0 -x {0.0 3.0 5 ------- null}
h -t 1.05 -s 0 -d 2 -p cbr -e 210 -c 0 -i 5 -a 0 -x {0.0 3.0 -1 ------- null}
r -t 1.05556 -s 0 -d 2 -p cbr -e 210 -c 0 -i 4 -a 0 -x {0.0 3.0 4 ------- null}
+ -t 1.05556 -s 2 -d 3 -p cbr -e 210 -c 0 -i 4 -a 0 -x {0.0 3.0 4 ------- null}
- -t 1.05556 -s 2 -d 3 -p cbr -e 210 -c 0 -i 4 -a 0 -x {0.0 3.0 4 ------- null}
h -t 1.05556 -s 2 -d 3 -p cbr -e 210 -c 0 -i 4 -a 0 -x {0.0 3.0 -1 ------- null}
r -t 1.0564 -s 2 -d 3 -p cbr -e 210 -c 0 -i 2 -a 0 -x {0.0 3.0 2 ------- null}
+ -t 1.06 -s 0 -d 2 -p cbr -e 210 -c 0 -i 6 -a 0 -x {0.0 3.0 6 ------- null}
- -t 1.06 -s 0 -d 2 -p cbr -e 210 -c 0 -i 6 -a 0 -x {0.0 3.0 6 ------- null}
h -t 1.06 -s 0 -d 2 -p cbr -e 210 -c 0 -i 6 -a 0 -x {0.0 3.0 -1 ------- null}
r -t 1.06556 -s 0 -d 2 -p cbr -e 210 -c 0 -i 5 -a 0 -x {0.0 3.0 5 ------- null}
+ -t 1.06556 -s 2 -d 3 -p cbr -e 210 -c 0 -i 5 -a 0 -x {0.0 3.0 5 ------- null}
- -t 1.06556 -s 2 -d 3 -p cbr -e 210 -c 0 -i 5 -a 0 -x {0.0 3.0 5 ------- null}
h -t 1.06556 -s 2 -d 3 -p cbr -e 210 -c 0 -i 5 -a 0 -x {0.0 3.0 -1 ------- null}
r -t 1.0664 -s 2 -d 3 -p cbr -e 210 -c 0 -i 3 -a 0 -x {0.0 3.0 3 ------- null}
+ -t 1.07 -s 0 -d 2 -p cbr -e 210 -c 0 -i 7 -a 0 -x {0.0 3.0 7 ------- null}
- -t 1.07 -s 0 -d 2 -p cbr -e 210 -c 0 -i 7 -a 0 -x {0.0 3.0 7 ------- null}
h -t 1.07 -s 0 -d 2 -p cbr -e 210 -c 0 -i 7 -a 0 -x {0.0 3.0 -1 ------- null}
r -t 1.07556 -s 0 -d 2 -p cbr -e 210 -c 0 -i 6 -a 0 -x {0.0 3.0 6 ------- null}
+ -t 1.07556 -s 2 -d 3 -p cbr -e 210 -c 0 -i 6 -a 0 -x {0.0 3.0 6 ------- null}
- -t 1.07556 -s 2 -d 3 -p cbr -e 210 -c 0 -i 6 -a 0 -x {0.0 3.0 6 ------- null}
h -t 1.07556 -s 2 -d 3 -p cbr -e 210 -c 0 -i 6 -a 0 -x {0.0 3.0 -1 ------- null}
r -t 1.0764 -s 2 -d 3 -p cbr -e 210 -c 0 -i 4 -a 0 -x {0.0 3.0 4 ------- null}
+ -t 1.08 -s 0 -d 2 -p cbr -e 210 -c 0 -i 8 -a 0 -x {0.0 3.0 8 ------- null}
- -t 1.08 -s 0 -d 2 -p cbr -e 210 -c 0 -i 8 -a 0 -x {0.0 3.0 8 ------- null}
h -t 1.08 -s 0 -d 2 -p cbr -e 210 -c 0 -i 8 -a 0 -x {0.0 3.0 -1 ------- null}
r -t 1.08556 -s 0 -d 2 -p cbr -e 210 -c 0 -i 7 -a 0 -x {0.0 3.0 7 ------- null}
+ -t 1.08556 -s 2 -d 3 -p cbr -e 210 -c 0 -i 7 -a 0 -x {0.0 3.0 7 ------- null}
- -t 1.08556 -s 2 -d 3 -p cbr -e 210 -c 0 -i 7 -a 0 -x {0.0 3.0 7 ------- null}
h -t 1.08556 -s 2 -d 3 -p cbr -e 210 -c 0 -i 7 -a 0 -x {0.0 3.0 -1 ------- null}
r -t 1.0864 -s 2 -d 3 -p cbr -e 210 -c 0 -i 5 -a 0 -x {0.0 3.0 5 ------- null}
+ -t 1.09 -s 0 -d 2 -p cbr -e 210 -c 0 -i 9 -a 0 -x {0.0 3.0 9 ------- null}
- -t 1.09 -s 0 -d 2 -p cbr -e 210 -c 0 -i 9 -a 0 -x {0.0 3.0 9 ------- null}
h -t 1.09 -s 0 -d 2 -p cbr -e 210 -c 0 -i 9 -a 0 -x {0.0 3.0 -1 ------- null}
r -t 1.09556 -s 0 -d 2 -p cbr -e 210 -c 0 -i 8 -a 0 -x {0.0 3.0 8 ------- null}
+ -t 1.09556 -s 2 -d 3 -p cbr -e 210 -c 0 -i 8 -a 0 -x {0.0 3.0 8 ------- null}
- -t 1.09556 -s 2 -d 3 -p cbr -e 210 -c 0 -i 8 -a 0 -x {0.0 3.0 8 ------- null}
h -t 1.09556 -s 2 -d 3 -p cbr -e 210 -c 0 -i 8 -a 0 -x {0.0 3.0 -1 ------- null}
r -t 1.0964 -s 2 -d 3 -p cbr -e 210 -c 0 -i 6 -a 0 -x {0.0 3.0 6 ------- null}
+ -t 1.1 -s 0 -d 2 -p cbr -e 210 -c 0 -i 10 -a 0 -x {0.0 3.0 10 ------- null}
- -t 1.1 -s 0 -d 2 -p cbr -e 210 -c 0 -i 10 -a 0 -x {0.0 3.0 10 ------- null}
h -t 1.1 -s 0 -d 2 -p cbr -e 210 -c 0 -i 10 -a 0 -x {0.0 3.0 -1 ------- null}
r -t 1.10556 -s 0 -d 2 -p cbr -e 210 -c 0 -i 9 -a 0 -x {0.0 3.0 9 ------- null}
+ -t 1.10556 -s 2 -d 3 -p cbr -e 210 -c 0 -i 9 -a 0 -x {0.0 3.0 9 ------- null}
- -t 1.10556 -s 2 -d 3 -p cbr -e 210 -c 0 -i 9 -a 0 -x {0.0 3.0 9 ------- null}
h -t 1.10556 -s 2 -d 3 -p cbr -e 210 -c 0 -i 9 -a 0 -x {0.0 3.0 -1 ------- null}
r -t 1.1064 -s 2 -d 3 -p cbr -e 210 -c 0 -i 7 -a 0 -x {0.0 3.0 7 ------- null}
+ -t 1.11 -s 0 -d 2 -p cbr -e 210 -c 0 -i 11 -a 0 -x {0.0 3.0 11 ------- null}
- -t 1.11 -s 0 -d 2 -p cbr -e 210 -c 0 -i 11 -a 0 -x {0.0 3.0 11 ------- null}
h -t 1.11 -s 0 -d 2 -p cbr -e 210 -c 0 -i 11 -a 0 -x {0.0 3.0 -1 ------- null}
r -t 1.11556 -s 0 -d 2 -p cbr -e 210 -c 0 -i 10 -a 0 -x {0.0 3.0 10 ------- null}
+ -t 1.11556 -s 2 -d 3 -p cbr -e 210 -c 0 -i 10 -a 0 -x {0.0 3.0 10 ------- null}
- -t 1.11556 -s 2 -d 3 -p cbr -e 210 -c 0 -i 10 -a 0 -x {0.0 3.0 10 ------- null}
h -t 1.11556 -s 2 -d 3 -p cbr -e 210 -c 0 -i 10 -a 0 -x {0.0 3.0 -1 ------- null}
r -t 1.1164 -s 2 -d 3 -p cbr -e 210 -c 0 -i 8 -a 0 -x {0.0 3.0 8 ------- null}
+ -t 1.12 -s 0 -d 2 -p cbr -e 210 -c 0 -i 12 -a 0 -x {0.0 3.0 12 ------- null}
- -t 1.12 -s 0 -d 2 -p cbr -e 210 -c 0 -i 12 -a 0 -x {0.0 3.0 12 ------- null}
h -t 1.12 -s 0 -d 2 -p cbr -e 210 -c 0 -i 12 -a 0 -x {0.0 3.0 -1 ------- null}
r -t 1.12556 -s 0 -d 2 -p cbr -e 210 -c 0 -i 11 -a 0 -x {0.0 3.0 11 ------- null}
+ -t 1.12556 -s 2 -d 3 -p cbr -e 210 -c 0 -i 11 -a 0 -x {0.0 3.0 11 ------- null}
- -t 1.12556 -s 2 -d 3 -p cbr -e 210 -c 0 -i 11 -a 0 -x {0.0 3.0 11 ------- null}
h -t 1.12556 -s 2 -d 3 -p cbr -e 210 -c 0 -i 11 -a 0 -x {0.0 3.0 -1 ------- null}
r -t 1.1264 -s 2 -d 3 -p cbr -e 210 -c 0 -i 9 -a 0 -x {0.0 3.0 9 ------- null}
+ -t 1.13 -s 0 -d 2 -p cbr -e 210 -c 0 -i 13 -a 0 -x {0.0 3.0 13 ------- null}
- -t 1.13 -s 0 -d 2 -p cbr -e 210 -c 0 -i 13 -a 0 -x {0.0 3.0 13 ------- null}
h -t 1.13 -s 0 -d 2 -p cbr -e 210 -c 0 -i 13 -a 0 -x {0.0 3.0 -1 ------- null}
r -t 1.13556 -s 0 -d 2 -p cbr -e 210 -c 0 -i 12 -a 0 -x {0.0 3.0 12 ------- null}
+ -t 1.13556 -s 2 -d 3 -p cbr -e 210 -c 0 -i 12 -a 0 -x {0.0 3.0 12 ------- null}
- -t 1.13556 -s 2 -d 3 -p cbr -e 210 -c 0 -i 12 -a 0 -x {0.0 3.0 12 ------- null}
h -t 1.13556 -s 2 -d 3 -p cbr -e 210 -c 0 -i 12 -a 0 -x {0.0 3.0 -1 ------- null}
r -t 1.1364 -s 2 -d 3 -p cbr -e 210 -c 0 -i 10 -a 0 -x {0.0 3.0 10 ------- null}
+ -t 1.14 -s 0 -d 2 -p cbr -e 210 -c 0 -i 14 -a 0 -x {0.0 3.0 14 ------- null}
- -t 1.14 -s 0 -d 2 -p cbr -e 210 -c 0 -i 14 -a 0 -x {0.0 3.0 14 ------- null}
h -t 1.14 -s 0 -d 2 -p cbr -e 210 -c 0 -i 14 -a 0 -x {0.0 3.0 -1 ------- null}
r -t 1.14556 -s 0 -d 2 -p cbr -e 210 -c 0 -i 13 -a 0 -x {0.0 3.0 13 ------- null}
+ -t 1.14556 -s 2 -d 3 -p cbr -e 210 -c 0 -i 13 -a 0 -x {0.0 3.0 13 ------- null}
- -t 1.14556 -s 2 -d 3 -p cbr -e 210 -c 0 -i 13 -a 0 -x {0.0 3.0 13 ------- null}
h -t 1.14556 -s 2 -d 3 -p cbr -e 210 -c 0 -i 13 -a 0 -x {0.0 3.0 -1 ------- null}
r -t 1.1464 -s 2 -d 3 -p cbr -e 210 -c 0 -i 11 -a 0 -x {0.0 3.0 11 ------- null}
+ -t 1.15 -s 0 -d 2 -p cbr -e 210 -c 0 -i 15 -a 0 -x {0.0 3.0 15 ------- null}
- -t 1.15 -s 0 -d 2 -p cbr -e 210 -c 0 -i 15 -a 0 -x {0.0 3.0 15 ------- null}
h -t 1.15 -s 0 -d 2 -p cbr -e 210 -c 0 -i 15 -a 0 -x {0.0 3.0 -1 ------- null}
r -t 1.15556 -s 0 -d 2 -p cbr -e 210 -c 0 -i 14 -a 0 -x {0.0 3.0 14 ------- null}
+ -t 1.15556 -s 2 -d 3 -p cbr -e 210 -c 0 -i 14 -a 0 -x {0.0 3.0 14 ------- null}
- -t 1.15556 -s 2 -d 3 -p cbr -e 210 -c 0 -i 14 -a 0 -x {0.0 3.0 14 ------- null}
h -t 1.15556 -s 2 -d 3 -p cbr -e 210 -c 0 -i 14 -a 0 -x {0.0 3.0 -1 ------- null}
r -t 1.1564 -s 2 -d 3 -p cbr -e 210 -c 0 -i 12 -a 0 -x {0.0 3.0 12 ------- null}
+ -t 1.16 -s 0 -d 2 -p cbr -e 210 -c 0 -i 16 -a 0 -x {0.0 3.0 16 ------- null}
- -t 1.16 -s 0 -d 2 -p cbr -e 210 -c 0 -i 16 -a 0 -x {0.0 3.0 16 ------- null}
h -t 1.16 -s 0 -d 2 -p cbr -e 210 -c 0 -i 16 -a 0 -x {0.0 3.0 -1 ------- null}
r -t 1.16556 -s 0 -d 2 -p cbr -e 210 -c 0 -i 15 -a 0 -x {0.0 3.0 15 ------- null}
+ -t 1.16556 -s 2 -d 3 -p cbr -e 210 -c 0 -i 15 -a 0 -x {0.0 3.0 15 ------- null}
- -t 1.16556 -s 2 -d 3 -p cbr -e 210 -c 0 -i 15 -a 0 -x {0.0 3.0 15 ------- null}
h -t 1.16556 -s 2 -d 3 -p cbr -e 210 -c 0 -i 15 -a 0 -x {0.0 3.0 -1 ------- null}
r -t 1.1664 -s 2 -d 3 -p cbr -e 210 -c 0 -i 13 -a 0 -x {0.0 3.0 13 ------- null}
+ -t 1.17 -s 0 -d 2 -p cbr -e 210 -c 0 -i 17 -a 0 -x {0.0 3.0 17 ------- null}
- -t 1.17 -s 0 -d 2 -p cbr -e 210 -c 0 -i 17 -a 0 -x {0.0 3.0 17 ------- null}
h -t 1.17 -s 0 -d 2 -p cbr -e 210 -c 0 -i 17 -a 0 -x {0.0 3.0 -1 ------- null}
r -t 1.17556 -s 0 -d 2 -p cbr -e 210 -c 0 -i 16 -a 0 -x {0.0 3.0 16 ------- null}
+ -t 1.17556 -s 2 -d 3 -p cbr -e 210 -c 0 -i 16 -a 0 -x {0.0 3.0 16 ------- null}
- -t 1.17556 -s 2 -d 3 -p cbr -e 210 -c 0 -i 16 -a 0 -x {0.0 3.0 16 ------- null}
h -t 1.17556 -s 2 -d 3 -p cbr -e 210 -c 0 -i 16 -a 0 -x {0.0 3.0 -1 ------- null}
r -t 1.1764 -s 2 -d 3 -p cbr -e 210 -c 0 -i 14 -a 0 -x {0.0 3.0 14 ------- null}
+ -t 1.18 -s 0 -d 2 -p cbr -e 210 -c 0 -i 18 -a 0 -x {0.0 3.0 18 ------- null}
- -t 1.18 -s 0 -d 2 -p cbr -e 210 -c 0 -i 18 -a 0 -x {0.0 3.0 18 ------- null}
h -t 1.18 -s 0 -d 2 -p cbr -e 210 -c 0 -i 18 -a 0 -x {0.0 3.0 -1 ------- null}
r -t 1.18556 -s 0 -d 2 -p cbr -e 210 -c 0 -i 17 -a 0 -x {0.0 3.0 17 ------- null}
+ -t 1.18556 -s 2 -d 3 -p cbr -e 210 -c 0 -i 17 -a 0 -x {0.0 3.0 17 ------- null}
- -t 1.18556 -s 2 -d 3 -p cbr -e 210 -c 0 -i 17 -a 0 -x {0.0 3.0 17 ------- null}
h -t 1.18556 -s 2 -d 3 -p cbr -e 210 -c 0 -i 17 -a 0 -x {0.0 3.0 -1 ------- null}
r -t 1.1864 -s 2 -d 3 -p cbr -e 210 -c 0 -i 15 -a 0 -x {0.0 3.0 15 ------- null}
+ -t 1.19 -s 0 -d 2 -p cbr -e 210 -c 0 -i 19 -a 0 -x {0.0 3.0 19 ------- null}
- -t 1.19 -s 0 -d 2 -p cbr -e 210 -c 0 -i 19 -a 0 -x {0.0 3.0 19 ------- null}
h -t 1.19 -s 0 -d 2 -p cbr -e 210 -c 0 -i 19 -a 0 -x {0.0 3.0 -1 ------- null}
r -t 1.19556 -s 0 -d 2 -p cbr -e 210 -c 0 -i 18 -a 0 -x {0.0 3.0 18 ------- null}
+ -t 1.19556 -s 2 -d 3 -p cbr -e 210 -c 0 -i 18 -a 0 -x {0.0 3.0 18 ------- null}
- -t 1.19556 -s 2 -d 3 -p cbr -e 210 -c 0 -i 18 -a 0 -x {0.0 3.0 18 ------- null}
h -t 1.19556 -s 2 -d 3 -p cbr -e 210 -c 0 -i 18 -a 0 -x {0.0 3.0 -1 ------- null}
r -t 1.1964 -s 2 -d 3 -p cbr -e 210 -c 0 -i 16 -a 0 -x {0.0 3.0 16 ------- null}
+ -t 1.2 -s 0 -d 2 -p cbr -e 210 -c 0 -i 20 -a 0 -x {0.0 3.0 20 ------- null}
- -t 1.2 -s 0 -d 2 -p cbr -e 210 -c 0 -i 20 -a 0 -x {0.0 3.0 20 ------- null}
h -t 1.2 -s 0 -d 2 -p cbr -e 210 -c 0 -i 20 -a 0 -x {0.0 3.0 -1 ------- null}
r -t 1.20556 -s 0 -d 2 -p cbr -e 210 -c 0 -i 19 -a 0 -x {0.0 3.0 19 ------- null}
+ -t 1.20556 -s 2 -d 3 -p cbr -e 210 -c 0 -i 19 -a 0 -x {0.0 3.0 19 ------- null}
- -t 1.20556 -s 2 -d 3 -p cbr -e 210 -c 0 -i 19 -a 0 -x {0.0 3.0 19 ------- null}
h -t 1.20556 -s 2 -d 3 -p cbr -e 210 -c 0 -i 19 -a 0 -x {0.0 3.0 -1 ------- null}
r -t 1.2064 -s 2 -d 3 -p cbr -e 210 -c 0 -i 17 -a 0 -x {0.0 3.0 17 ------- null}
+ -t 1.21 -s 0 -d 2 -p cbr -e 210 -c 0 -i 21 -a 0 -x {0.0 3.0 21 ------- null}
- -t 1.21 -s 0 -d 2 -p cbr -e 210 -c 0 -i 21 -a 0 -x {0.0 3.0 21 ------- null}
h -t 1.21 -s 0 -d 2 -p cbr -e 210 -c 0 -i 21 -a 0 -x {0.0 3.0 -1 ------- null}
r -t 1.21556 -s 0 -d 2 -p cbr -e 210 -c 0 -i 20 -a 0 -x {0.0 3.0 20 ------- null}
+ -t 1.21556 -s 2 -d 3 -p cbr -e 210 -c 0 -i 20 -a 0 -x {0.0 3.0 20 ------- null}
- -t 1.21556 -s 2 -d 3 -p cbr -e 210 -c 0 -i 20 -a 0 -x {0.0 3.0 20 ------- null}
h -t 1.21556 -s 2 -d 3 -p cbr -e 210 -c 0 -i 20 -a 0 -x {0.0 3.0 -1 ------- null}
r -t 1.2164 -s 2 -d 3 -p cbr -e 210 -c 0 -i 18 -a 0 -x {0.0 3.0 18 ------- null}
+ -t 1.22 -s 0 -d 2 -p cbr -e 210 -c 0 -i 22 -a 0 -x {0.0 3.0 22 ------- null}
- -t 1.22 -s 0 -d 2 -p cbr -e 210 -c 0 -i 22 -a 0 -x {0.0 3.0 22 ------- null}
h -t 1.22 -s 0 -d 2 -p cbr -e 210 -c 0 -i 22 -a 0 -x {0.0 3.0 -1 ------- null}
r -t 1.22556 -s 0 -d 2 -p cbr -e 210 -c 0 -i 21 -a 0 -x {0.0 3.0 21 ------- null}
+ -t 1.22556 -s 2 -d 3 -p cbr -e 210 -c 0 -i 21 -a 0 -x {0.0 3.0 21 ------- null}
- -t 1.22556 -s 2 -d 3 -p cbr -e 210 -c 0 -i 21 -a 0 -x {0.0 3.0 21 ------- null}
h -t 1.22556 -s 2 -d 3 -p cbr -e 210 -c 0 -i 21 -a 0 -x {0.0 3.0 -1 ------- null}
r -t 1.2264 -s 2 -d 3 -p cbr -e 210 -c 0 -i 19 -a 0 -x {0.0 3.0 19 ------- null}
+ -t 1.23 -s 0 -d 2 -p cbr -e 210 -c 0 -i 23 -a 0 -x {0.0 3.0 23 ------- null}
- -t 1.23 -s 0 -d 2 -p cbr -e 210 -c 0 -i 23 -a 0 -x {0.0 3.0 23 ------- null}
h -t 1.23 -s 0 -d 2 -p cbr -e 210 -c 0 -i 23 -a 0 -x {0.0 3.0 -1 ------- null}
r -t 1.23556 -s 0 -d 2 -p cbr -e 210 -c 0 -i 22 -a 0 -x {0.0 3.0 22 ------- null}
+ -t 1.23556 -s 2 -d 3 -p cbr -e 210 -c 0 -i 22 -a 0 -x {0.0 3.0 22 ------- null}
- -t 1.23556 -s 2 -d 3 -p cbr -e 210 -c 0 -i 22 -a 0 -x {0.0 3.0 22 ------- null}
h -t 1.23556 -s 2 -d 3 -p cbr -e 210 -c 0 -i 22 -a 0 -x {0.0 3.0 -1 ------- null}
r -t 1.2364 -s 2 -d 3 -p cbr -e 210 -c 0 -i 20 -a 0 -x {0.0 3.0 20 ------- null}
+ -t 1.24 -s 0 -d 2 -p cbr -e 210 -c 0 -i 24 -a 0 -x {0.0 3.0 24 ------- null}
- -t 1.24 -s 0 -d 2 -p cbr -e 210 -c 0 -i 24 -a 0 -x {0.0 3.0 24 ------- null}
h -t 1.24 -s 0 -d 2 -p cbr -e 210 -c 0 -i 24 -a 0 -x {0.0 3.0 -1 ------- null}
r -t 1.24556 -s 0 -d 2 -p cbr -e 210 -c 0 -i 23 -a 0 -x {0.0 3.0 23 ------- null}
+ -t 1.24556 -s 2 -d 3 -p cbr -e 210 -c 0 -i 23 -a 0 -x {0.0 3.0 23 ------- null}
- -t 1.24556 -s 2 -d 3 -p cbr -e 210 -c 0 -i 23 -a 0 -x {0.0 3.0 23 ------- null}
h -t 1.24556 -s 2 -d 3 -p cbr -e 210 -c 0 -i 23 -a 0 -x {0.0 3.0 -1 ------- null}
r -t 1.2464 -s 2 -d 3 -p cbr -e 210 -c 0 -i 21 -a 0 -x {0.0 3.0 21 ------- null}
+ -t 1.25 -s 0 -d 2 -p cbr -e 210 -c 0 -i 25 -a 0 -x {0.0 3.0 25 ------- null}
- -t 1.25 -s 0 -d 2 -p cbr -e 210 -c 0 -i 25 -a 0 -x {0.0 3.0 25 ------- null}
h -t 1.25 -s 0 -d 2 -p cbr -e 210 -c 0 -i 25 -a 0 -x {0.0 3.0 -1 ------- null}
r -t 1.25556 -s 0 -d 2 -p cbr -e 210 -c 0 -i 24 -a 0 -x {0.0 3.0 24 ------- null}
+ -t 1.25556 -s 2 -d 3 -p cbr -e 210 -c 0 -i 24 -a 0 -x {0.0 3.0 24 ------- null}
- -t 1.25556 -s 2 -d 3 -p cbr -e 210 -c 0 -i 24 -a 0 -x {0.0 3.0 24 ------- null}
h -t 1.25556 -s 2 -d 3 -p cbr -e 210 -c 0 -i 24 -a 0 -x {0.0 3.0 -1 ------- null}
r -t 1.2564 -s 2 -d 3 -p cbr -e 210 -c 0 -i 22 -a 0 -x {0.0 3.0 22 ------- null}
+ -t 1.26 -s 0 -d 2 -p cbr -e 210 -c 0 -i 26 -a 0 -x {0.0 3.0 26 ------- null}
- -t 1.26 -s 0 -d 2 -p cbr -e 210 -c 0 -i 26 -a 0 -x {0.0 3.0 26 ------- null}
h -t 1.26 -s 0 -d 2 -p cbr -e 210 -c 0 -i 26 -a 0 -x {0.0 3.0 -1 ------- null}
r -t 1.26556 -s 0 -d 2 -p cbr -e 210 -c 0 -i 25 -a 0 -x {0.0 3.0 25 ------- null}
+ -t 1.26556 -s 2 -d 3 -p cbr -e 210 -c 0 -i 25 -a 0 -x {0.0 3.0 25 ------- null}
- -t 1.26556 -s 2 -d 3 -p cbr -e 210 -c 0 -i 25 -a 0 -x {0.0 3.0 25 ------- null}
h -t 1.26556 -s 2 -d 3 -p cbr -e 210 -c 0 -i 25 -a 0 -x {0.0 3.0 -1 ------- null}
r -t 1.2664 -s 2 -d 3 -p cbr -e 210 -c 0 -i 23 -a 0 -x {0.0 3.0 23 ------- null}
+ -t 1.27 -s 0 -d 2 -p cbr -e 210 -c 0 -i 27 -a 0 -x {0.0 3.0 27 ------- null}
- -t 1.27 -s 0 -d 2 -p cbr -e 210 -c 0 -i 27 -a 0 -x {0.0 3.0 27 ------- null}
h -t 1.27 -s 0 -d 2 -p cbr -e 210 -c 0 -i 27 -a 0 -x {0.0 3.0 -1 ------- null}
r -t 1.27556 -s 0 -d 2 -p cbr -e 210 -c 0 -i 26 -a 0 -x {0.0 3.0 26 ------- null}
+ -t 1.27556 -s 2 -d 3 -p cbr -e 210 -c 0 -i 26 -a 0 -x {0.0 3.0 26 ------- null}
- -t 1.27556 -s 2 -d 3 -p cbr -e 210 -c 0 -i 26 -a 0 -x {0.0 3.0 26 ------- null}
h -t 1.27556 -s 2 -d 3 -p cbr -e 210 -c 0 -i 26 -a 0 -x {0.0 3.0 -1 ------- null}
r -t 1.2764 -s 2 -d 3 -p cbr -e 210 -c 0 -i 24 -a 0 -x {0.0 3.0 24 ------- null}
+ -t 1.28 -s 0 -d 2 -p cbr -e 210 -c 0 -i 28 -a 0 -x {0.0 3.0 28 ------- null}
- -t 1.28 -s 0 -d 2 -p cbr -e 210 -c 0 -i 28 -a 0 -x {0.0 3.0 28 ------- null}
h -t 1.28 -s 0 -d 2 -p cbr -e 210 -c 0 -i 28 -a 0 -x {0.0 3.0 -1 ------- null}
r -t 1.28556 -s 0 -d 2 -p cbr -e 210 -c 0 -i 27 -a 0 -x {0.0 3.0 27 ------- null}
+ -t 1.28556 -s 2 -d 3 -p cbr -e 210 -c 0 -i 27 -a 0 -x {0.0 3.0 27 ------- null}
- -t 1.28556 -s 2 -d 3 -p cbr -e 210 -c 0 -i 27 -a 0 -x {0.0 3.0 27 ------- null}
h -t 1.28556 -s 2 -d 3 -p cbr -e 210 -c 0 -i 27 -a 0 -x {0.0 3.0 -1 ------- null}
r -t 1.2864 -s 2 -d 3 -p cbr -e 210 -c 0 -i 25 -a 0 -x {0.0 3.0 25 ------- null}
+ -t 1.29 -s 0 -d 2 -p cbr -e 210 -c 0 -i 29 -a 0 -x {0.0 3.0 29 ------- null}
- -t 1.29 -s 0 -d 2 -p cbr -e 210 -c 0 -i 29 -a 0 -x {0.0 3.0 29 ------- null}
h -t 1.29 -s 0 -d 2 -p cbr -e 210 -c 0 -i 29 -a 0 -x {0.0 3.0 -1 ------- null}
r -t 1.29556 -s 0 -d 2 -p cbr -e 210 -c 0 -i 28 -a 0 -x {0.0 3.0 28 ------- null}
+ -t 1.29556 -s 2 -d 3 -p cbr -e 210 -c 0 -i 28 -a 0 -x {0.0 3.0 28 ------- null}
- -t 1.29556 -s 2 -d 3 -p cbr -e 210 -c 0 -i 28 -a 0 -x {0.0 3.0 28 ------- null}
h -t 1.29556 -s 2 -d 3 -p cbr -e 210 -c 0 -i 28 -a 0 -x {0.0 3.0 -1 ------- null}
r -t 1.2964 -s 2 -d 3 -p cbr -e 210 -c 0 -i 26 -a 0 -x {0.0 3.0 26 ------- null}
+ -t 1.3 -s 0 -d 2 -p cbr -e 210 -c 0 -i 30 -a 0 -x {0.0 3.0 30 ------- null}
- -t 1.3 -s 0 -d 2 -p cbr -e 210 -c 0 -i 30 -a 0 -x {0.0 3.0 30 ------- null}
h -t 1.3 -s 0 -d 2 -p cbr -e 210 -c 0 -i 30 -a 0 -x {0.0 3.0 -1 ------- null}
r -t 1.30556 -s 0 -d 2 -p cbr -e 210 -c 0 -i 29 -a 0 -x {0.0 3.0 29 ------- null}
+ -t 1.30556 -s 2 -d 3 -p cbr -e 210 -c 0 -i 29 -a 0 -x {0.0 3.0 29 ------- null}
- -t 1.30556 -s 2 -d 3 -p cbr -e 210 -c 0 -i 29 -a 0 -x {0.0 3.0 29 ------- null}
h -t 1.30556 -s 2 -d 3 -p cbr -e 210 -c 0 -i 29 -a 0 -x {0.0 3.0 -1 ------- null}
r -t 1.3064 -s 2 -d 3 -p cbr -e 210 -c 0 -i 27 -a 0 -x {0.0 3.0 27 ------- null}
+ -t 1.31 -s 0 -d 2 -p cbr -e 210 -c 0 -i 31 -a 0 -x {0.0 3.0 31 ------- null}
- -t 1.31 -s 0 -d 2 -p cbr -e 210 -c 0 -i 31 -a 0 -x {0.0 3.0 31 ------- null}
h -t 1.31 -s 0 -d 2 -p cbr -e 210 -c 0 -i 31 -a 0 -x {0.0 3.0 -1 ------- null}
r -t 1.31556 -s 0 -d 2 -p cbr -e 210 -c 0 -i 30 -a 0 -x {0.0 3.0 30 ------- null}
+ -t 1.31556 -s 2 -d 3 -p cbr -e 210 -c 0 -i 30 -a 0 -x {0.0 3.0 30 ------- null}
- -t 1.31556 -s 2 -d 3 -p cbr -e 210 -c 0 -i 30 -a 0 -x {0.0 3.0 30 ------- null}
h -t 1.31556 -s 2 -d 3 -p cbr -e 210 -c 0 -i 30 -a 0 -x {0.0 3.0 -1 ------- null}
r -t 1.3164 -s 2 -d 3 -p cbr -e 210 -c 0 -i 28 -a 0 -x {0.0 3.0 28 ------- null}
+ -t 1.32 -s 0 -d 2 -p cbr -e 210 -c 0 -i 32 -a 0 -x {0.0 3.0 32 ------- null}
- -t 1.32 -s 0 -d 2 -p cbr -e 210 -c 0 -i 32 -a 0 -x {0.0 3.0 32 ------- null}
h -t 1.32 -s 0 -d 2 -p cbr -e 210 -c 0 -i 32 -a 0 -x {0.0 3.0 -1 ------- null}
r -t 1.32556 -s 0 -d 2 -p cbr -e 210 -c 0 -i 31 -a 0 -x {0.0 3.0 31 ------- null}
+ -t 1.32556 -s 2 -d 3 -p cbr -e 210 -c 0 -i 31 -a 0 -x {0.0 3.0 31 ------- null}
- -t 1.32556 -s 2 -d 3 -p cbr -e 210 -c 0 -i 31 -a 0 -x {0.0 3.0 31 ------- null}
h -t 1.32556 -s 2 -d 3 -p cbr -e 210 -c 0 -i 31 -a 0 -x {0.0 3.0 -1 ------- null}
r -t 1.3264 -s 2 -d 3 -p cbr -e 210 -c 0 -i 29 -a 0 -x {0.0 3.0 29 ------- null}
+ -t 1.33 -s 0 -d 2 -p cbr -e 210 -c 0 -i 33 -a 0 -x {0.0 3.0 33 ------- null}
- -t 1.33 -s 0 -d 2 -p cbr -e 210 -c 0 -i 33 -a 0 -x {0.0 3.0 33 ------- null}
h -t 1.33 -s 0 -d 2 -p cbr -e 210 -c 0 -i 33 -a 0 -x {0.0 3.0 -1 ------- null}
r -t 1.33556 -s 0 -d 2 -p cbr -e 210 -c 0 -i 32 -a 0 -x {0.0 3.0 32 ------- null}
+ -t 1.33556 -s 2 -d 3 -p cbr -e 210 -c 0 -i 32 -a 0 -x {0.0 3.0 32 ------- null}
- -t 1.33556 -s 2 -d 3 -p cbr -e 210 -c 0 -i 32 -a 0 -x {0.0 3.0 32 ------- null}
h -t 1.33556 -s 2 -d 3 -p cbr -e 210 -c 0 -i 32 -a 0 -x {0.0 3.0 -1 ------- null}
r -t 1.3364 -s 2 -d 3 -p cbr -e 210 -c 0 -i 30 -a 0 -x {0.0 3.0 30 ------- null}
+ -t 1.34 -s 0 -d 2 -p cbr -e 210 -c 0 -i 34 -a 0 -x {0.0 3.0 34 ------- null}
- -t 1.34 -s 0 -d 2 -p cbr -e 210 -c 0 -i 34 -a 0 -x {0.0 3.0 34 ------- null}
h -t 1.34 -s 0 -d 2 -p cbr -e 210 -c 0 -i 34 -a 0 -x {0.0 3.0 -1 ------- null}
r -t 1.34556 -s 0 -d 2 -p cbr -e 210 -c 0 -i 33 -a 0 -x {0.0 3.0 33 ------- null}
+ -t 1.34556 -s 2 -d 3 -p cbr -e 210 -c 0 -i 33 -a 0 -x {0.0 3.0 33 ------- null}
- -t 1.34556 -s 2 -d 3 -p cbr -e 210 -c 0 -i 33 -a 0 -x {0.0 3.0 33 ------- null}
h -t 1.34556 -s 2 -d 3 -p cbr -e 210 -c 0 -i 33 -a 0 -x {0.0 3.0 -1 ------- null}
r -t 1.3464 -s 2 -d 3 -p cbr -e 210 -c 0 -i 31 -a 0 -x {0.0 3.0 31 ------- null}
+ -t 1.35 -s 0 -d 2 -p cbr -e 210 -c 0 -i 35 -a 0 -x {0.0 3.0 35 ------- null}
- -t 1.35 -s 0 -d 2 -p cbr -e 210 -c 0 -i 35 -a 0 -x {0.0 3.0 35 ------- null}
h -t 1.35 -s 0 -d 2 -p cbr -e 210 -c 0 -i 35 -a 0 -x {0.0 3.0 -1 ------- null}
r -t 1.35556 -s 0 -d 2 -p cbr -e 210 -c 0 -i 34 -a 0 -x {0.0 3.0 34 ------- null}
+ -t 1.35556 -s 2 -d 3 -p cbr -e 210 -c 0 -i 34 -a 0 -x {0.0 3.0 34 ------- null}
- -t 1.35556 -s 2 -d 3 -p cbr -e 210 -c 0 -i 34 -a 0 -x {0.0 3.0 34 ------- null}
h -t 1.35556 -s 2 -d 3 -p cbr -e 210 -c 0 -i 34 -a 0 -x {0.0 3.0 -1 ------- null}
r -t 1.3564 -s 2 -d 3 -p cbr -e 210 -c 0 -i 32 -a 0 -x {0.0 3.0 32 ------- null}
+ -t 1.36 -s 0 -d 2 -p cbr -e 210 -c 0 -i 36 -a 0 -x {0.0 3.0 36 ------- null}
- -t 1.36 -s 0 -d 2 -p cbr -e 210 -c 0 -i 36 -a 0 -x {0.0 3.0 36 ------- null}
h -t 1.36 -s 0 -d 2 -p cbr -e 210 -c 0 -i 36 -a 0 -x {0.0 3.0 -1 ------- null}
r -t 1.36556 -s 0 -d 2 -p cbr -e 210 -c 0 -i 35 -a 0 -x {0.0 3.0 35 ------- null}
+ -t 1.36556 -s 2 -d 3 -p cbr -e 210 -c 0 -i 35 -a 0 -x {0.0 3.0 35 ------- null}
- -t 1.36556 -s 2 -d 3 -p cbr -e 210 -c 0 -i 35 -a 0 -x {0.0 3.0 35 ------- null}
h -t 1.36556 -s 2 -d 3 -p cbr -e 210 -c 0 -i 35 -a 0 -x {0.0 3.0 -1 ------- null}
r -t 1.3664 -s 2 -d 3 -p cbr -e 210 -c 0 -i 33 -a 0 -x {0.0 3.0 33 ------- null}
+ -t 1.37 -s 0 -d 2 -p cbr -e 210 -c 0 -i 37 -a 0 -x {0.0 3.0 37 ------- null}
- -t 1.37 -s 0 -d 2 -p cbr -e 210 -c 0 -i 37 -a 0 -x {0.0 3.0 37 ------- null}
h -t 1.37 -s 0 -d 2 -p cbr -e 210 -c 0 -i 37 -a 0 -x {0.0 3.0 -1 ------- null}
r -t 1.37556 -s 0 -d 2 -p cbr -e 210 -c 0 -i 36 -a 0 -x {0.0 3.0 36 ------- null}
+ -t 1.37556 -s 2 -d 3 -p cbr -e 210 -c 0 -i 36 -a 0 -x {0.0 3.0 36 ------- null}
- -t 1.37556 -s 2 -d 3 -p cbr -e 210 -c 0 -i 36 -a 0 -x {0.0 3.0 36 ------- null}
h -t 1.37556 -s 2 -d 3 -p cbr -e 210 -c 0 -i 36 -a 0 -x {0.0 3.0 -1 ------- null}
r -t 1.3764 -s 2 -d 3 -p cbr -e 210 -c 0 -i 34 -a 0 -x {0.0 3.0 34 ------- null}
+ -t 1.38 -s 0 -d 2 -p cbr -e 210 -c 0 -i 38 -a 0 -x {0.0 3.0 38 ------- null}
- -t 1.38 -s 0 -d 2 -p cbr -e 210 -c 0 -i 38 -a 0 -x {0.0 3.0 38 ------- null}
h -t 1.38 -s 0 -d 2 -p cbr -e 210 -c 0 -i 38 -a 0 -x {0.0 3.0 -1 ------- null}
r -t 1.38556 -s 0 -d 2 -p cbr -e 210 -c 0 -i 37 -a 0 -x {0.0 3.0 37 ------- null}
+ -t 1.38556 -s 2 -d 3 -p cbr -e 210 -c 0 -i 37 -a 0 -x {0.0 3.0 37 ------- null}
- -t 1.38556 -s 2 -d 3 -p cbr -e 210 -c 0 -i 37 -a 0 -x {0.0 3.0 37 ------- null}
h -t 1.38556 -s 2 -d 3 -p cbr -e 210 -c 0 -i 37 -a 0 -x {0.0 3.0 -1 ------- null}
r -t 1.3864 -s 2 -d 3 -p cbr -e 210 -c 0 -i 35 -a 0 -x {0.0 3.0 35 ------- null}
+ -t 1.39 -s 0 -d 2 -p cbr -e 210 -c 0 -i 39 -a 0 -x {0.0 3.0 39 ------- null}
- -t 1.39 -s 0 -d 2 -p cbr -e 210 -c 0 -i 39 -a 0 -x {0.0 3.0 39 ------- null}
h -t 1.39 -s 0 -d 2 -p cbr -e 210 -c 0 -i 39 -a 0 -x {0.0 3.0 -1 ------- null}
r -t 1.39556 -s 0 -d 2 -p cbr -e 210 -c 0 -i 38 -a 0 -x {0.0 3.0 38 ------- null}
+ -t 1.39556 -s 2 -d 3 -p cbr -e 210 -c 0 -i 38 -a 0 -x {0.0 3.0 38 ------- null}
- -t 1.39556 -s 2 -d 3 -p cbr -e 210 -c 0 -i 38 -a 0 -x {0.0 3.0 38 ------- null}
h -t 1.39556 -s 2 -d 3 -p cbr -e 210 -c 0 -i 38 -a 0 -x {0.0 3.0 -1 ------- null}
r -t 1.3964 -s 2 -d 3 -p cbr -e 210 -c 0 -i 36 -a 0 -x {0.0 3.0 36 ------- null}
+ -t 1.4 -s 0 -d 2 -p cbr -e 210 -c 0 -i 40 -a 0 -x {0.0 3.0 40 ------- null}
- -t 1.4 -s 0 -d 2 -p cbr -e 210 -c 0 -i 40 -a 0 -x {0.0 3.0 40 ------- null}
h -t 1.4 -s 0 -d 2 -p cbr -e 210 -c 0 -i 40 -a 0 -x {0.0 3.0 -1 ------- null}
r -t 1.40556 -s 0 -d 2 -p cbr -e 210 -c 0 -i 39 -a 0 -x {0.0 3.0 39 ------- null}
+ -t 1.40556 -s 2 -d 3 -p cbr -e 210 -c 0 -i 39 -a 0 -x {0.0 3.0 39 ------- null}
- -t 1.40556 -s 2 -d 3 -p cbr -e 210 -c 0 -i 39 -a 0 -x {0.0 3.0 39 ------- null}
h -t 1.40556 -s 2 -d 3 -p cbr -e 210 -c 0 -i 39 -a 0 -x {0.0 3.0 -1 ------- null}
r -t 1.4064 -s 2 -d 3 -p cbr -e 210 -c 0 -i 37 -a 0 -x {0.0 3.0 37 ------- null}
+ -t 1.41 -s 0 -d 2 -p cbr -e 210 -c 0 -i 41 -a 0 -x {0.0 3.0 41 ------- null}
- -t 1.41 -s 0 -d 2 -p cbr -e 210 -c 0 -i 41 -a 0 -x {0.0 3.0 41 ------- null}
h -t 1.41 -s 0 -d 2 -p cbr -e 210 -c 0 -i 41 -a 0 -x {0.0 3.0 -1 ------- null}
r -t 1.41556 -s 0 -d 2 -p cbr -e 210 -c 0 -i 40 -a 0 -x {0.0 3.0 40 ------- null}
+ -t 1.41556 -s 2 -d 3 -p cbr -e 210 -c 0 -i 40 -a 0 -x {0.0 3.0 40 ------- null}
- -t 1.41556 -s 2 -d 3 -p cbr -e 210 -c 0 -i 40 -a 0 -x {0.0 3.0 40 ------- null}
h -t 1.41556 -s 2 -d 3 -p cbr -e 210 -c 0 -i 40 -a 0 -x {0.0 3.0 -1 ------- null}
r -t 1.4164 -s 2 -d 3 -p cbr -e 210 -c 0 -i 38 -a 0 -x {0.0 3.0 38 ------- null}
+ -t 1.42 -s 0 -d 2 -p cbr -e 210 -c 0 -i 42 -a 0 -x {0.0 3.0 42 ------- null}
- -t 1.42 -s 0 -d 2 -p cbr -e 210 -c 0 -i 42 -a 0 -x {0.0 3.0 42 ------- null}
h -t 1.42 -s 0 -d 2 -p cbr -e 210 -c 0 -i 42 -a 0 -x {0.0 3.0 -1 ------- null}
r -t 1.42556 -s 0 -d 2 -p cbr -e 210 -c 0 -i 41 -a 0 -x {0.0 3.0 41 ------- null}
+ -t 1.42556 -s 2 -d 3 -p cbr -e 210 -c 0 -i 41 -a 0 -x {0.0 3.0 41 ------- null}
- -t 1.42556 -s 2 -d 3 -p cbr -e 210 -c 0 -i 41 -a 0 -x {0.0 3.0 41 ------- null}
h -t 1.42556 -s 2 -d 3 -p cbr -e 210 -c 0 -i 41 -a 0 -x {0.0 3.0 -1 ------- null}
r -t 1.4264 -s 2 -d 3 -p cbr -e 210 -c 0 -i 39 -a 0 -x {0.0 3.0 39 ------- null}
+ -t 1.43 -s 0 -d 2 -p cbr -e 210 -c 0 -i 43 -a 0 -x {0.0 3.0 43 ------- null}
- -t 1.43 -s 0 -d 2 -p cbr -e 210 -c 0 -i 43 -a 0 -x {0.0 3.0 43 ------- null}
h -t 1.43 -s 0 -d 2 -p cbr -e 210 -c 0 -i 43 -a 0 -x {0.0 3.0 -1 ------- null}
r -t 1.43556 -s 0 -d 2 -p cbr -e 210 -c 0 -i 42 -a 0 -x {0.0 3.0 42 ------- null}
+ -t 1.43556 -s 2 -d 3 -p cbr -e 210 -c 0 -i 42 -a 0 -x {0.0 3.0 42 ------- null}
- -t 1.43556 -s 2 -d 3 -p cbr -e 210 -c 0 -i 42 -a 0 -x {0.0 3.0 42 ------- null}
h -t 1.43556 -s 2 -d 3 -p cbr -e 210 -c 0 -i 42 -a 0 -x {0.0 3.0 -1 ------- null}
r -t 1.4364 -s 2 -d 3 -p cbr -e 210 -c 0 -i 40 -a 0 -x {0.0 3.0 40 ------- null}
+ -t 1.44 -s 0 -d 2 -p cbr -e 210 -c 0 -i 44 -a 0 -x {0.0 3.0 44 ------- null}
- -t 1.44 -s 0 -d 2 -p cbr -e 210 -c 0 -i 44 -a 0 -x {0.0 3.0 44 ------- null}
h -t 1.44 -s 0 -d 2 -p cbr -e 210 -c 0 -i 44 -a 0 -x {0.0 3.0 -1 ------- null}
r -t 1.44556 -s 0 -d 2 -p cbr -e 210 -c 0 -i 43 -a 0 -x {0.0 3.0 43 ------- null}
+ -t 1.44556 -s 2 -d 3 -p cbr -e 210 -c 0 -i 43 -a 0 -x {0.0 3.0 43 ------- null}
- -t 1.44556 -s 2 -d 3 -p cbr -e 210 -c 0 -i 43 -a 0 -x {0.0 3.0 43 ------- null}
h -t 1.44556 -s 2 -d 3 -p cbr -e 210 -c 0 -i 43 -a 0 -x {0.0 3.0 -1 ------- null}
r -t 1.4464 -s 2 -d 3 -p cbr -e 210 -c 0 -i 41 -a 0 -x {0.0 3.0 41 ------- null}
+ -t 1.45 -s 0 -d 2 -p cbr -e 210 -c 0 -i 45 -a 0 -x {0.0 3.0 45 ------- null}
- -t 1.45 -s 0 -d 2 -p cbr -e 210 -c 0 -i 45 -a 0 -x {0.0 3.0 45 ------- null}
h -t 1.45 -s 0 -d 2 -p cbr -e 210 -c 0 -i 45 -a 0 -x {0.0 3.0 -1 ------- null}
r -t 1.45556 -s 0 -d 2 -p cbr -e 210 -c 0 -i 44 -a 0 -x {0.0 3.0 44 ------- null}
+ -t 1.45556 -s 2 -d 3 -p cbr -e 210 -c 0 -i 44 -a 0 -x {0.0 3.0 44 ------- null}
- -t 1.45556 -s 2 -d 3 -p cbr -e 210 -c 0 -i 44 -a 0 -x {0.0 3.0 44 ------- null}
h -t 1.45556 -s 2 -d 3 -p cbr -e 210 -c 0 -i 44 -a 0 -x {0.0 3.0 -1 ------- null}
r -t 1.4564 -s 2 -d 3 -p cbr -e 210 -c 0 -i 42 -a 0 -x {0.0 3.0 42 ------- null}
+ -t 1.46 -s 0 -d 2 -p cbr -e 210 -c 0 -i 46 -a 0 -x {0.0 3.0 46 ------- null}
- -t 1.46 -s 0 -d 2 -p cbr -e 210 -c 0 -i 46 -a 0 -x {0.0 3.0 46 ------- null}
h -t 1.46 -s 0 -d 2 -p cbr -e 210 -c 0 -i 46 -a 0 -x {0.0 3.0 -1 ------- null}
r -t 1.46556 -s 0 -d 2 -p cbr -e 210 -c 0 -i 45 -a 0 -x {0.0 3.0 45 ------- null}
+ -t 1.46556 -s 2 -d 3 -p cbr -e 210 -c 0 -i 45 -a 0 -x {0.0 3.0 45 ------- null}
- -t 1.46556 -s 2 -d 3 -p cbr -e 210 -c 0 -i 45 -a 0 -x {0.0 3.0 45 ------- null}