+ 0.00017 0 1 rtProtoDV 6 ------- 0 0.2 1.2 -1 2
- 0.00017 0 1 rtProtoDV 6 ------- 0 0.2 1.2 -1 2
+ 0.00017 0 5 rtProtoDV 6 ------- 0 0.2 5.1 -1 3
- 0.00017 0 5 rtProtoDV 6 ------- 0 0.2 5.1 -1 3
+ 0.007102 2 1 rtProtoDV 6 ------- 0 2.2 1.2 -1 4
- 0.007102 2 1 rtProtoDV 6 ------- 0 2.2 1.2 -1 4
+ 0.007102 2 3 rtProtoDV 6 ------- 0 2.2 3.2 -1 5
- 0.007102 2 3 rtProtoDV 6 ------- 0 2.2 3.2 -1 5
r 0.010194 0 1 rtProtoDV 6 ------- 0 0.2 1.2 -1 2
+ 0.010194 1 0 rtProtoDV 6 ------- 0 1.2 0.2 -1 7
- 0.010194 1 0 rtProtoDV 6 ------- 0 1.2 0.2 -1 7
+ 0.010194 1 2 rtProtoDV 6 ------- 0 1.2 2.2 -1 8
- 0.010194 1 2 rtProtoDV 6 ------- 0 1.2 2.2 -1 8
r 0.020202 0 5 rtProtoDV 6 ------- 0 0.2 5.1 -1 3
+ 0.020202 5 0 rtProtoDV 6 ------- 0 5.1 0.2 -1 10
- 0.020202 5 0 rtProtoDV 6 ------- 0 5.1 0.2 -1 10
+ 0.020202 5 4 rtProtoDV 6 ------- 0 5.1 4.1 -1 11
- 0.020202 5 4 rtProtoDV 6 ------- 0 5.1 4.1 -1 11
r 0.020218 1 0 rtProtoDV 6 ------- 0 1.2 0.2 -1 7
+ 0.020218 0 1 rtProtoDV 6 ------- 0 0.2 1.2 -1 12
- 0.020218 0 1 rtProtoDV 6 ------- 0 0.2 1.2 -1 12
+ 0.020218 0 5 rtProtoDV 6 ------- 0 0.2 5.1 -1 13
- 0.020218 0 5 rtProtoDV 6 ------- 0 0.2 5.1 -1 13
r 0.022118 2 1 rtProtoDV 6 ------- 0 2.2 1.2 -1 4
+ 0.022118 1 0 rtProtoDV 6 ------- 0 1.2 0.2 -1 14
- 0.022118 1 0 rtProtoDV 6 ------- 0 1.2 0.2 -1 14
+ 0.022118 1 2 rtProtoDV 6 ------- 0 1.2 2.2 -1 15
- 0.022118 1 2 rtProtoDV 6 ------- 0 1.2 2.2 -1 15
r 0.022134 2 3 rtProtoDV 6 ------- 0 2.2 3.2 -1 5
+ 0.022134 3 2 rtProtoDV 6 ------- 0 3.2 2.2 -1 16
- 0.022134 3 2 rtProtoDV 6 ------- 0 3.2 2.2 -1 16
+ 0.022134 3 4 rtProtoDV 6 ------- 0 3.2 4.1 -1 17
- 0.022134 3 4 rtProtoDV 6 ------- 0 3.2 4.1 -1 17
r 0.02521 1 2 rtProtoDV 6 ------- 0 1.2 2.2 -1 8
+ 0.02521 2 1 rtProtoDV 6 ------- 0 2.2 1.2 -1 18
- 0.02521 2 1 rtProtoDV 6 ------- 0 2.2 1.2 -1 18
+ 0.02521 2 3 rtProtoDV 6 ------- 0 2.2 3.2 -1 19
- 0.02521 2 3 rtProtoDV 6 ------- 0 2.2 3.2 -1 19
+ 0.03 0 1 cbr 210 ------- 0 0.0 2.0 3 20
- 0.03 0 1 cbr 210 ------- 0 0.0 2.0 3 20
r 0.030242 0 1 rtProtoDV 6 ------- 0 0.2 1.2 -1 12
r 0.032142 1 0 rtProtoDV 6 ------- 0 1.2 0.2 -1 14
+ 0.032142 0 1 rtProtoDV 6 ------- 0 0.2 1.2 -1 21
- 0.032142 0 1 rtProtoDV 6 ------- 0 0.2 1.2 -1 21
+ 0.032142 0 5 rtProtoDV 6 ------- 0 0.2 5.1 -1 22
- 0.032142 0 5 rtProtoDV 6 ------- 0 0.2 5.1 -1 22
r 0.037134 1 2 rtProtoDV 6 ------- 0 1.2 2.2 -1 15
r 0.037166 3 2 rtProtoDV 6 ------- 0 3.2 2.2 -1 16
+ 0.037166 2 1 rtProtoDV 6 ------- 0 2.2 1.2 -1 23
- 0.037166 2 1 rtProtoDV 6 ------- 0 2.2 1.2 -1 23
+ 0.037166 2 3 rtProtoDV 6 ------- 0 2.2 3.2 -1 24
- 0.037166 2 3 rtProtoDV 6 ------- 0 2.2 3.2 -1 24
+ 0.04 0 1 cbr 210 ------- 0 0.0 2.0 4 25
- 0.04 0 1 cbr 210 ------- 0 0.0 2.0 4 25
r 0.040226 2 1 rtProtoDV 6 ------- 0 2.2 1.2 -1 18
r 0.040234 5 0 rtProtoDV 6 ------- 0 5.1 0.2 -1 10
+ 0.040234 0 1 rtProtoDV 6 ------- 0 0.2 1.2 -1 26
+ 0.040234 0 5 rtProtoDV 6 ------- 0 0.2 5.1 -1 27
- 0.040234 0 5 rtProtoDV 6 ------- 0 0.2 5.1 -1 27
r 0.040242 2 3 rtProtoDV 6 ------- 0 2.2 3.2 -1 19
+ 0.040242 3 2 rtProtoDV 6 ------- 0 3.2 2.2 -1 28
- 0.040242 3 2 rtProtoDV 6 ------- 0 3.2 2.2 -1 28
+ 0.040242 3 4 rtProtoDV 6 ------- 0 3.2 4.1 -1 29
- 0.040242 3 4 rtProtoDV 6 ------- 0 3.2 4.1 -1 29
r 0.04025 0 5 rtProtoDV 6 ------- 0 0.2 5.1 -1 13
+ 0.04025 5 0 rtProtoDV 6 ------- 0 5.1 0.2 -1 30
- 0.04025 5 0 rtProtoDV 6 ------- 0 5.1 0.2 -1 30
+ 0.04025 5 4 rtProtoDV 6 ------- 0 5.1 4.1 -1 31
- 0.04025 5 4 rtProtoDV 6 ------- 0 5.1 4.1 -1 31
r 0.04084 0 1 cbr 210 ------- 0 0.0 2.0 3 20
+ 0.04084 1 2 cbr 210 ------- 0 0.0 2.0 3 20
- 0.04084 1 2 cbr 210 ------- 0 0.0 2.0 3 20
- 0.04084 0 1 rtProtoDV 6 ------- 0 0.2 1.2 -1 26
r 0.042158 3 4 rtProtoDV 6 ------- 0 3.2 4.1 -1 17
+ 0.042158 4 3 rtProtoDV 6 ------- 0 4.1 3.2 -1 32
- 0.042158 4 3 rtProtoDV 6 ------- 0 4.1 3.2 -1 32
+ 0.042158 4 5 rtProtoDV 6 ------- 0 4.1 5.1 -1 33
- 0.042158 4 5 rtProtoDV 6 ------- 0 4.1 5.1 -1 33
r 0.042166 0 1 rtProtoDV 6 ------- 0 0.2 1.2 -1 21
+ 0.044061 3 2 rtProtoDV 6 ------- 0 3.2 2.2 -1 34
- 0.044061 3 2 rtProtoDV 6 ------- 0 3.2 2.2 -1 34
+ 0.044061 3 4 rtProtoDV 6 ------- 0 3.2 4.1 -1 35
- 0.044061 3 4 rtProtoDV 6 ------- 0 3.2 4.1 -1 35
r 0.045226 5 4 rtProtoDV 6 ------- 0 5.1 4.1 -1 11
+ 0.045226 4 3 rtProtoDV 6 ------- 0 4.1 3.2 -1 36
- 0.045226 4 3 rtProtoDV 6 ------- 0 4.1 3.2 -1 36
+ 0.045226 4 5 rtProtoDV 6 ------- 0 4.1 5.1 -1 37
- 0.045226 4 5 rtProtoDV 6 ------- 0 4.1 5.1 -1 37
+ 0.05 0 1 cbr 210 ------- 0 0.0 2.0 5 38
- 0.05 0 1 cbr 210 ------- 0 0.0 2.0 5 38
r 0.05084 0 1 cbr 210 ------- 0 0.0 2.0 4 25
+ 0.05084 1 2 cbr 210 ------- 0 0.0 2.0 4 25
- 0.05084 1 2 cbr 210 ------- 0 0.0 2.0 4 25
r 0.050864 0 1 rtProtoDV 6 ------- 0 0.2 1.2 -1 26
+ 0.050864 1 0 rtProtoDV 6 ------- 0 1.2 0.2 -1 39
- 0.050864 1 0 rtProtoDV 6 ------- 0 1.2 0.2 -1 39
+ 0.050864 1 2 rtProtoDV 6 ------- 0 1.2 2.2 -1 40
- 0.0514 1 2 rtProtoDV 6 ------- 0 1.2 2.2 -1 40
r 0.052174 0 5 rtProtoDV 6 ------- 0 0.2 5.1 -1 22
+ 0.052174 5 0 rtProtoDV 6 ------- 0 5.1 0.2 -1 41
- 0.052174 5 0 rtProtoDV 6 ------- 0 5.1 0.2 -1 41
+ 0.052174 5 4 rtProtoDV 6 ------- 0 5.1 4.1 -1 42
- 0.052174 5 4 rtProtoDV 6 ------- 0 5.1 4.1 -1 42
r 0.052182 2 1 rtProtoDV 6 ------- 0 2.2 1.2 -1 23
r 0.052198 2 3 rtProtoDV 6 ------- 0 2.2 3.2 -1 24
r 0.055274 3 2 rtProtoDV 6 ------- 0 3.2 2.2 -1 28
r 0.0564 1 2 cbr 210 ------- 0 0.0 2.0 3 20
r 0.059093 3 2 rtProtoDV 6 ------- 0 3.2 2.2 -1 34
+ 0.06 0 1 cbr 210 ------- 0 0.0 2.0 6 43
- 0.06 0 1 cbr 210 ------- 0 0.0 2.0 6 43
r 0.060266 3 4 rtProtoDV 6 ------- 0 3.2 4.1 -1 29
r 0.060266 0 5 rtProtoDV 6 ------- 0 0.2 5.1 -1 27
r 0.060282 5 0 rtProtoDV 6 ------- 0 5.1 0.2 -1 30
r 0.06084 0 1 cbr 210 ------- 0 0.0 2.0 5 38
+ 0.06084 1 2 cbr 210 ------- 0 0.0 2.0 5 38
- 0.06084 1 2 cbr 210 ------- 0 0.0 2.0 5 38
r 0.060888 1 0 rtProtoDV 6 ------- 0 1.2 0.2 -1 39
r 0.062182 4 3 rtProtoDV 6 ------- 0 4.1 3.2 -1 32
+ 0.062182 3 2 rtProtoDV 6 ------- 0 3.2 2.2 -1 44
- 0.062182 3 2 rtProtoDV 6 ------- 0 3.2 2.2 -1 44
+ 0.062182 3 4 rtProtoDV 6 ------- 0 3.2 4.1 -1 45
- 0.062182 3 4 rtProtoDV 6 ------- 0 3.2 4.1 -1 45
r 0.064085 3 4 rtProtoDV 6 ------- 0 3.2 4.1 -1 35
r 0.06525 4 3 rtProtoDV 6 ------- 0 4.1 3.2 -1 36
r 0.065274 5 4 rtProtoDV 6 ------- 0 5.1 4.1 -1 31
r 0.0664 1 2 cbr 210 ------- 0 0.0 2.0 4 25
r 0.066416 1 2 rtProtoDV 6 ------- 0 1.2 2.2 -1 40
r 0.067182 4 5 rtProtoDV 6 ------- 0 4.1 5.1 -1 33
+ 0.067182 5 0 rtProtoDV 6 ------- 0 5.1 0.2 -1 46
- 0.067182 5 0 rtProtoDV 6 ------- 0 5.1 0.2 -1 46
+ 0.067182 5 4 rtProtoDV 6 ------- 0 5.1 4.1 -1 47
- 0.067182 5 4 rtProtoDV 6 ------- 0 5.1 4.1 -1 47
+ 0.07 0 1 cbr 210 ------- 0 0.0 2.0 7 48
- 0.07 0 1 cbr 210 ------- 0 0.0 2.0 7 48
r 0.07025 4 5 rtProtoDV 6 ------- 0 4.1 5.1 -1 37
r 0.07084 0 1 cbr 210 ------- 0 0.0 2.0 6 43
+ 0.07084 1 2 cbr 210 ------- 0 0.0 2.0 6 43
- 0.07084 1 2 cbr 210 ------- 0 0.0 2.0 6 43
r 0.072206 5 0 rtProtoDV 6 ------- 0 5.1 0.2 -1 41
r 0.0764 1 2 cbr 210 ------- 0 0.0 2.0 5 38
r 0.077198 5 4 rtProtoDV 6 ------- 0 5.1 4.1 -1 42
r 0.077214 3 2 rtProtoDV 6 ------- 0 3.2 2.2 -1 44
+ 0.08 0 1 cbr 210 ------- 0 0.0 2.0 8 49
- 0.08 0 1 cbr 210 ------- 0 0.0 2.0 8 49
r 0.08084 0 1 cbr 210 ------- 0 0.0 2.0 7 48
+ 0.08084 1 2 cbr 210 ------- 0 0.0 2.0 7 48
- 0.08084 1 2 cbr 210 ------- 0 0.0 2.0 7 48
r 0.082206 3 4 rtProtoDV 6 ------- 0 3.2 4.1 -1 45
r 0.0864 1 2 cbr 210 ------- 0 0.0 2.0 6 43
r 0.087214 5 0 rtProtoDV 6 ------- 0 5.1 0.2 -1 46
+ 0.09 0 1 cbr 210 ------- 0 0.0 2.0 9 50
- 0.09 0 1 cbr 210 ------- 0 0.0 2.0 9 50
r 0.09084 0 1 cbr 210 ------- 0 0.0 2.0 8 49
+ 0.09084 1 2 cbr 210 ------- 0 0.0 2.0 8 49
- 0.09084 1 2 cbr 210 ------- 0 0.0 2.0 8 49
r 0.092206 5 4 rtProtoDV 6 ------- 0 5.1 4.1 -1 47
r 0.0964 1 2 cbr 210 ------- 0 0.0 2.0 7 48
+ 0.1 0 1 cbr 210 ------- 0 0.0 2.0 10 51
- 0.1 0 1 cbr 210 ------- 0 0.0 2.0 10 51
r 0.10084 0 1 cbr 210 ------- 0 0.0 2.0 9 50
+ 0.10084 1 2 cbr 210 ------- 0 0.0 2.0 9 50
- 0.10084 1 2 cbr 210 ------- 0 0.0 2.0 9 50
r 0.1064 1 2 cbr 210 ------- 0 0.0 2.0 8 49
+ 0.11 0 1 cbr 210 ------- 0 0.0 2.0 11 52
- 0.11 0 1 cbr 210 ------- 0 0.0 2.0 11 52
r 0.11084 0 1 cbr 210 ------- 0 0.0 2.0 10 51
+ 0.11084 1 2 cbr 210 ------- 0 0.0 2.0 10 51
- 0.11084 1 2 cbr 210 ------- 0 0.0 2.0 10 51
r 0.1164 1 2 cbr 210 ------- 0 0.0 2.0 9 50
+ 0.12 0 1 cbr 210 ------- 0 0.0 2.0 12 53
- 0.12 0 1 cbr 210 ------- 0 0.0 2.0 12 53
r 0.12084 0 1 cbr 210 ------- 0 0.0 2.0 11 52
+ 0.12084 1 2 cbr 210 ------- 0 0.0 2.0 11 52
- 0.12084 1 2 cbr 210 ------- 0 0.0 2.0 11 52
r 0.1264 1 2 cbr 210 ------- 0 0.0 2.0 10 51
+ 0.13 0 1 cbr 210 ------- 0 0.0 2.0 13 54
- 0.13 0 1 cbr 210 ------- 0 0.0 2.0 13 54
r 0.13084 0 1 cbr 210 ------- 0 0.0 2.0 12 53
+ 0.13084 1 2 cbr 210 ------- 0 0.0 2.0 12 53
- 0.13084 1 2 cbr 210 ------- 0 0.0 2.0 12 53
r 0.1364 1 2 cbr 210 ------- 0 0.0 2.0 11 52
+ 0.14 0 1 cbr 210 ------- 0 0.0 2.0 14 55
- 0.14 0 1 cbr 210 ------- 0 0.0 2.0 14 55
r 0.14084 0 1 cbr 210 ------- 0 0.0 2.0 13 54
+ 0.14084 1 2 cbr 210 ------- 0 0.0 2.0 13 54
- 0.14084 1 2 cbr 210 ------- 0 0.0 2.0 13 54
r 0.1464 1 2 cbr 210 ------- 0 0.0 2.0 12 53
+ 0.15 0 1 cbr 210 ------- 0 0.0 2.0 15 56
- 0.15 0 1 cbr 210 ------- 0 0.0 2.0 15 56
r 0.15084 0 1 cbr 210 ------- 0 0.0 2.0 14 55
+ 0.15084 1 2 cbr 210 ------- 0 0.0 2.0 14 55
- 0.15084 1 2 cbr 210 ------- 0 0.0 2.0 14 55
r 0.1564 1 2 cbr 210 ------- 0 0.0 2.0 13 54
+ 0.16 0 1 cbr 210 ------- 0 0.0 2.0 16 57
- 0.16 0 1 cbr 210 ------- 0 0.0 2.0 16 57
r 0.16084 0 1 cbr 210 ------- 0 0.0 2.0 15 56
+ 0.16084 1 2 cbr 210 ------- 0 0.0 2.0 15 56
- 0.16084 1 2 cbr 210 ------- 0 0.0 2.0 15 56
r 0.1664 1 2 cbr 210 ------- 0 0.0 2.0 14 55
+ 0.17 0 1 cbr 210 ------- 0 0.0 2.0 17 58
- 0.17 0 1 cbr 210 ------- 0 0.0 2.0 17 58
r 0.17084 0 1 cbr 210 ------- 0 0.0 2.0 16 57
+ 0.17084 1 2 cbr 210 ------- 0 0.0 2.0 16 57
- 0.17084 1 2 cbr 210 ------- 0 0.0 2.0 16 57
r 0.1764 1 2 cbr 210 ------- 0 0.0 2.0 15 56
+ 0.18 0 1 cbr 210 ------- 0 0.0 2.0 18 59
- 0.18 0 1 cbr 210 ------- 0 0.0 2.0 18 59
r 0.18084 0 1 cbr 210 ------- 0 0.0 2.0 17 58
+ 0.18084 1 2 cbr 210 ------- 0 0.0 2.0 17 58
- 0.18084 1 2 cbr 210 ------- 0 0.0 2.0 17 58
r 0.1864 1 2 cbr 210 ------- 0 0.0 2.0 16 57
+ 0.19 0 1 cbr 210 ------- 0 0.0 2.0 19 60
- 0.19 0 1 cbr 210 ------- 0 0.0 2.0 19 60
r 0.19084 0 1 cbr 210 ------- 0 0.0 2.0 18 59
+ 0.19084 1 2 cbr 210 ------- 0 0.0 2.0 18 59
- 0.19084 1 2 cbr 210 ------- 0 0.0 2.0 18 59
r 0.1964 1 2 cbr 210 ------- 0 0.0 2.0 17 58
+ 0.2 0 1 cbr 210 ------- 0 0.0 2.0 20 61
- 0.2 0 1 cbr 210 ------- 0 0.0 2.0 20 61
r 0.20084 0 1 cbr 210 ------- 0 0.0 2.0 19 60
+ 0.20084 1 2 cbr 210 ------- 0 0.0 2.0 19 60
- 0.20084 1 2 cbr 210 ------- 0 0.0 2.0 19 60
r 0.2064 1 2 cbr 210 ------- 0 0.0 2.0 18 59
+ 0.21 0 1 cbr 210 ------- 0 0.0 2.0 21 62
- 0.21 0 1 cbr 210 ------- 0 0.0 2.0 21 62
r 0.21084 0 1 cbr 210 ------- 0 0.0 2.0 20 61
+ 0.21084 1 2 cbr 210 ------- 0 0.0 2.0 20 61
- 0.21084 1 2 cbr 210 ------- 0 0.0 2.0 20 61
r 0.2164 1 2 cbr 210 ------- 0 0.0 2.0 19 60
+ 0.22 0 1 cbr 210 ------- 0 0.0 2.0 22 63
- 0.22 0 1 cbr 210 ------- 0 0.0 2.0 22 63
+ 0.220587 4 3 rtProtoDV 6 ------- 0 4.1 3.2 -1 64
- 0.220587 4 3 rtProtoDV 6 ------- 0 4.1 3.2 -1 64
+ 0.220587 4 5 rtProtoDV 6 ------- 0 4.1 5.1 -1 65
- 0.220587 4 5 rtProtoDV 6 ------- 0 4.1 5.1 -1 65
r 0.22084 0 1 cbr 210 ------- 0 0.0 2.0 21 62
+ 0.22084 1 2 cbr 210 ------- 0 0.0 2.0 21 62
- 0.22084 1 2 cbr 210 ------- 0 0.0 2.0 21 62
r 0.2264 1 2 cbr 210 ------- 0 0.0 2.0 20 61
+ 0.23 0 1 cbr 210 ------- 0 0.0 2.0 23 66
- 0.23 0 1 cbr 210 ------- 0 0.0 2.0 23 66
r 0.23084 0 1 cbr 210 ------- 0 0.0 2.0 22 63
+ 0.23084 1 2 cbr 210 ------- 0 0.0 2.0 22 63
- 0.23084 1 2 cbr 210 ------- 0 0.0 2.0 22 63
r 0.2364 1 2 cbr 210 ------- 0 0.0 2.0 21 62
+ 0.24 0 1 cbr 210 ------- 0 0.0 2.0 24 67
- 0.24 0 1 cbr 210 ------- 0 0.0 2.0 24 67
r 0.240611 4 3 rtProtoDV 6 ------- 0 4.1 3.2 -1 64
r 0.24084 0 1 cbr 210 ------- 0 0.0 2.0 23 66
+ 0.24084 1 2 cbr 210 ------- 0 0.0 2.0 23 66
- 0.24084 1 2 cbr 210 ------- 0 0.0 2.0 23 66
r 0.245611 4 5 rtProtoDV 6 ------- 0 4.1 5.1 -1 65
r 0.2464 1 2 cbr 210 ------- 0 0.0 2.0 22 63
+ 0.25 0 1 cbr 210 ------- 0 0.0 2.0 25 68
- 0.25 0 1 cbr 210 ------- 0 0.0 2.0 25 68
r 0.25084 0 1 cbr 210 ------- 0 0.0 2.0 24 67
+ 0.25084 1 2 cbr 210 ------- 0 0.0 2.0 24 67
- 0.25084 1 2 cbr 210 ------- 0 0.0 2.0 24 67
r 0.2564 1 2 cbr 210 ------- 0 0.0 2.0 23 66
+ 0.26 0 1 cbr 210 ------- 0 0.0 2.0 26 69
- 0.26 0 1 cbr 210 ------- 0 0.0 2.0 26 69
r 0.26084 0 1 cbr 210 ------- 0 0.0 2.0 25 68
+ 0.26084 1 2 cbr 210 ------- 0 0.0 2.0 25 68
- 0.26084 1 2 cbr 210 ------- 0 0.0 2.0 25 68
r 0.2664 1 2 cbr 210 ------- 0 0.0 2.0 24 67
+ 0.27 0 1 cbr 210 ------- 0 0.0 2.0 27 70
- 0.27 0 1 cbr 210 ------- 0 0.0 2.0 27 70
r 0.27084 0 1 cbr 210 ------- 0 0.0 2.0 26 69
+ 0.27084 1 2 cbr 210 ------- 0 0.0 2.0 26 69
- 0.27084 1 2 cbr 210 ------- 0 0.0 2.0 26 69
r 0.2764 1 2 cbr 210 ------- 0 0.0 2.0 25 68
+ 0.27794 1 0 rtProtoDV 6 ------- 0 1.2 0.2 -1 71
- 0.27794 1 0 rtProtoDV 6 ------- 0 1.2 0.2 -1 71
+ 0.27794 1 2 rtProtoDV 6 ------- 0 1.2 2.2 -1 72
- 0.27794 1 2 rtProtoDV 6 ------- 0 1.2 2.2 -1 72
+ 0.28 0 1 cbr 210 ------- 0 0.0 2.0 28 73
- 0.28 0 1 cbr 210 ------- 0 0.0 2.0 28 73
r 0.28084 0 1 cbr 210 ------- 0 0.0 2.0 27 70
+ 0.28084 1 2 cbr 210 ------- 0 0.0 2.0 27 70
- 0.28084 1 2 cbr 210 ------- 0 0.0 2.0 27 70
r 0.2864 1 2 cbr 210 ------- 0 0.0 2.0 26 69
r 0.287964 1 0 rtProtoDV 6 ------- 0 1.2 0.2 -1 71
+ 0.29 0 1 cbr 210 ------- 0 0.0 2.0 29 74
- 0.29 0 1 cbr 210 ------- 0 0.0 2.0 29 74
r 0.29084 0 1 cbr 210 ------- 0 0.0 2.0 28 73
+ 0.29084 1 2 cbr 210 ------- 0 0.0 2.0 28 73
- 0.29084 1 2 cbr 210 ------- 0 0.0 2.0 28 73
r 0.292956 1 2 rtProtoDV 6 ------- 0 1.2 2.2 -1 72
r 0.2964 1 2 cbr 210 ------- 0 0.0 2.0 27 70
+ 0.3 0 1 cbr 210 ------- 0 0.0 2.0 30 75
- 0.3 0 1 cbr 210 ------- 0 0.0 2.0 30 75
r 0.30084 0 1 cbr 210 ------- 0 0.0 2.0 29 74
+ 0.30084 1 2 cbr 210 ------- 0 0.0 2.0 29 74
- 0.30084 1 2 cbr 210 ------- 0 0.0 2.0 29 74
r 0.3064 1 2 cbr 210 ------- 0 0.0 2.0 28 73
+ 0.31 0 1 cbr 210 ------- 0 0.0 2.0 31 76
- 0.31 0 1 cbr 210 ------- 0 0.0 2.0 31 76
r 0.31084 0 1 cbr 210 ------- 0 0.0 2.0 30 75
+ 0.31084 1 2 cbr 210 ------- 0 0.0 2.0 30 75
- 0.31084 1 2 cbr 210 ------- 0 0.0 2.0 30 75
r 0.3164 1 2 cbr 210 ------- 0 0.0 2.0 29 74
+ 0.32 0 1 cbr 210 ------- 0 0.0 2.0 32 77
- 0.32 0 1 cbr 210 ------- 0 0.0 2.0 32 77
r 0.32084 0 1 cbr 210 ------- 0 0.0 2.0 31 76
+ 0.32084 1 2 cbr 210 ------- 0 0.0 2.0 31 76
- 0.32084 1 2 cbr 210 ------- 0 0.0 2.0 31 76
r 0.3264 1 2 cbr 210 ------- 0 0.0 2.0 30 75
+ 0.33 0 1 cbr 210 ------- 0 0.0 2.0 33 78
- 0.33 0 1 cbr 210 ------- 0 0.0 2.0 33 78
r 0.33084 0 1 cbr 210 ------- 0 0.0 2.0 32 77
+ 0.33084 1 2 cbr 210 ------- 0 0.0 2.0 32 77
- 0.33084 1 2 cbr 210 ------- 0 0.0 2.0 32 77
r 0.3364 1 2 cbr 210 ------- 0 0.0 2.0 31 76
+ 0.34 0 1 cbr 210 ------- 0 0.0 2.0 34 79
- 0.34 0 1 cbr 210 ------- 0 0.0 2.0 34 79
r 0.34084 0 1 cbr 210 ------- 0 0.0 2.0 33 78
+ 0.34084 1 2 cbr 210 ------- 0 0.0 2.0 33 78
- 0.34084 1 2 cbr 210 ------- 0 0.0 2.0 33 78
r 0.3464 1 2 cbr 210 ------- 0 0.0 2.0 32 77
+ 0.35 0 1 cbr 210 ------- 0 0.0 2.0 35 80
- 0.35 0 1 cbr 210 ------- 0 0.0 2.0 35 80
r 0.35084 0 1 cbr 210 ------- 0 0.0 2.0 34 79
+ 0.35084 1 2 cbr 210 ------- 0 0.0 2.0 34 79
- 0.35084 1 2 cbr 210 ------- 0 0.0 2.0 34 79
r 0.3564 1 2 cbr 210 ------- 0 0.0 2.0 33 78
+ 0.36 0 1 cbr 210 ------- 0 0.0 2.0 36 81
- 0.36 0 1 cbr 210 ------- 0 0.0 2.0 36 81
r 0.36084 0 1 cbr 210 ------- 0 0.0 2.0 35 80
+ 0.36084 1 2 cbr 210 ------- 0 0.0 2.0 35 80
- 0.36084 1 2 cbr 210 ------- 0 0.0 2.0 35 80
r 0.3664 1 2 cbr 210 ------- 0 0.0 2.0 34 79
+ 0.37 0 1 cbr 210 ------- 0 0.0 2.0 37 82
- 0.37 0 1 cbr 210 ------- 0 0.0 2.0 37 82
r 0.37084 0 1 cbr 210 ------- 0 0.0 2.0 36 81
+ 0.37084 1 2 cbr 210 ------- 0 0.0 2.0 36 81
- 0.37084 1 2 cbr 210 ------- 0 0.0 2.0 36 81
r 0.3764 1 2 cbr 210 ------- 0 0.0 2.0 35 80
+ 0.38 0 1 cbr 210 ------- 0 0.0 2.0 38 83
- 0.38 0 1 cbr 210 ------- 0 0.0 2.0 38 83
r 0.38084 0 1 cbr 210 ------- 0 0.0 2.0 37 82
+ 0.38084 1 2 cbr 210 ------- 0 0.0 2.0 37 82
- 0.38084 1 2 cbr 210 ------- 0 0.0 2.0 37 82
r 0.3864 1 2 cbr 210 ------- 0 0.0 2.0 36 81
+ 0.39 0 1 cbr 210 ------- 0 0.0 2.0 39 84
- 0.39 0 1 cbr 210 ------- 0 0.0 2.0 39 84
r 0.39084 0 1 cbr 210 ------- 0 0.0 2.0 38 83
+ 0.39084 1 2 cbr 210 ------- 0 0.0 2.0 38 83
- 0.39084 1 2 cbr 210 ------- 0 0.0 2.0 38 83
r 0.3964 1 2 cbr 210 ------- 0 0.0 2.0 37 82
+ 0.399578 5 0 rtProtoDV 6 ------- 0 5.1 0.2 -1 85
- 0.399578 5 0 rtProtoDV 6 ------- 0 5.1 0.2 -1 85
+ 0.399578 5 4 rtProtoDV 6 ------- 0 5.1 4.1 -1 86
- 0.399578 5 4 rtProtoDV 6 ------- 0 5.1 4.1 -1 86
+ 0.4 0 1 cbr 210 ------- 0 0.0 2.0 40 87
- 0.4 0 1 cbr 210 ------- 0 0.0 2.0 40 87
r 0.40084 0 1 cbr 210 ------- 0 0.0 2.0 39 84
+ 0.40084 1 2 cbr 210 ------- 0 0.0 2.0 39 84
- 0.40084 1 2 cbr 210 ------- 0 0.0 2.0 39 84
r 0.4064 1 2 cbr 210 ------- 0 0.0 2.0 38 83
+ 0.41 0 1 cbr 210 ------- 0 0.0 2.0 41 88
- 0.41 0 1 cbr 210 ------- 0 0.0 2.0 41 88
r 0.41084 0 1 cbr 210 ------- 0 0.0 2.0 40 87
+ 0.41084 1 2 cbr 210 ------- 0 0.0 2.0 40 87
- 0.41084 1 2 cbr 210 ------- 0 0.0 2.0 40 87
r 0.4164 1 2 cbr 210 ------- 0 0.0 2.0 39 84
r 0.41961 5 0 rtProtoDV 6 ------- 0 5.1 0.2 -1 85
+ 0.42 0 1 cbr 210 ------- 0 0.0 2.0 42 89
- 0.42 0 1 cbr 210 ------- 0 0.0 2.0 42 89
r 0.42084 0 1 cbr 210 ------- 0 0.0 2.0 41 88
+ 0.42084 1 2 cbr 210 ------- 0 0.0 2.0 41 88
- 0.42084 1 2 cbr 210 ------- 0 0.0 2.0 41 88
r 0.424602 5 4 rtProtoDV 6 ------- 0 5.1 4.1 -1 86
r 0.4264 1 2 cbr 210 ------- 0 0.0 2.0 40 87
+ 0.43 0 1 cbr 210 ------- 0 0.0 2.0 43 90
- 0.43 0 1 cbr 210 ------- 0 0.0 2.0 43 90
r 0.43084 0 1 cbr 210 ------- 0 0.0 2.0 42 89
+ 0.43084 1 2 cbr 210 ------- 0 0.0 2.0 42 89
- 0.43084 1 2 cbr 210 ------- 0 0.0 2.0 42 89
r 0.4364 1 2 cbr 210 ------- 0 0.0 2.0 41 88
+ 0.44 0 1 cbr 210 ------- 0 0.0 2.0 44 91
- 0.44 0 1 cbr 210 ------- 0 0.0 2.0 44 91
r 0.44084 0 1 cbr 210 ------- 0 0.0 2.0 43 90
+ 0.44084 1 2 cbr 210 ------- 0 0.0 2.0 43 90
- 0.44084 1 2 cbr 210 ------- 0 0.0 2.0 43 90
r 0.4464 1 2 cbr 210 ------- 0 0.0 2.0 42 89
+ 0.45 0 1 cbr 210 ------- 0 0.0 2.0 45 92
- 0.45 0 1 cbr 210 ------- 0 0.0 2.0 45 92
r 0.45084 0 1 cbr 210 ------- 0 0.0 2.0 44 91
+ 0.45084 1 2 cbr 210 ------- 0 0.0 2.0 44 91
- 0.45084 1 2 cbr 210 ------- 0 0.0 2.0 44 91
r 0.4564 1 2 cbr 210 ------- 0 0.0 2.0 43 90
+ 0.46 0 1 cbr 210 ------- 0 0.0 2.0 46 93
- 0.46 0 1 cbr 210 ------- 0 0.0 2.0 46 93
r 0.46084 0 1 cbr 210 ------- 0 0.0 2.0 45 92
+ 0.46084 1 2 cbr 210 ------- 0 0.0 2.0 45 92
- 0.46084 1 2 cbr 210 ------- 0 0.0 2.0 45 92
r 0.4664 1 2 cbr 210 ------- 0 0.0 2.0 44 91
+ 0.47 0 1 cbr 210 ------- 0 0.0 2.0 47 94
- 0.47 0 1 cbr 210 ------- 0 0.0 2.0 47 94
r 0.47084 0 1 cbr 210 ------- 0 0.0 2.0 46 93
+ 0.47084 1 2 cbr 210 ------- 0 0.0 2.0 46 93
- 0.47084 1 2 cbr 210 ------- 0 0.0 2.0 46 93
r 0.4764 1 2 cbr 210 ------- 0 0.0 2.0 45 92
+ 0.48 0 1 cbr 210 ------- 0 0.0 2.0 48 95
- 0.48 0 1 cbr 210 ------- 0 0.0 2.0 48 95
r 0.48084 0 1 cbr 210 ------- 0 0.0 2.0 47 94
+ 0.48084 1 2 cbr 210 ------- 0 0.0 2.0 47 94
- 0.48084 1 2 cbr 210 ------- 0 0.0 2.0 47 94
r 0.4864 1 2 cbr 210 ------- 0 0.0 2.0 46 93
+ 0.49 0 1 cbr 210 ------- 0 0.0 2.0 49 96
- 0.49 0 1 cbr 210 ------- 0 0.0 2.0 49 96
r 0.49084 0 1 cbr 210 ------- 0 0.0 2.0 48 95
+ 0.49084 1 2 cbr 210 ------- 0 0.0 2.0 48 95
- 0.49084 1 2 cbr 210 ------- 0 0.0 2.0 48 95
r 0.4964 1 2 cbr 210 ------- 0 0.0 2.0 47 94
+ 0.5 0 1 cbr 210 ------- 0 0.0 2.0 50 97
- 0.5 0 1 cbr 210 ------- 0 0.0 2.0 50 97
r 0.50084 0 1 cbr 210 ------- 0 0.0 2.0 49 96
+ 0.50084 1 2 cbr 210 ------- 0 0.0 2.0 49 96
- 0.50084 1 2 cbr 210 ------- 0 0.0 2.0 49 96
r 0.5064 1 2 cbr 210 ------- 0 0.0 2.0 48 95
+ 0.51 0 1 cbr 210 ------- 0 0.0 2.0 51 98
- 0.51 0 1 cbr 210 ------- 0 0.0 2.0 51 98
r 0.51084 0 1 cbr 210 ------- 0 0.0 2.0 50 97
+ 0.51084 1 2 cbr 210 ------- 0 0.0 2.0 50 97
- 0.51084 1 2 cbr 210 ------- 0 0.0 2.0 50 97
r 0.5164 1 2 cbr 210 ------- 0 0.0 2.0 49 96
+ 0.52 0 1 cbr 210 ------- 0 0.0 2.0 52 99
- 0.52 0 1 cbr 210 ------- 0 0.0 2.0 52 99
r 0.52084 0 1 cbr 210 ------- 0 0.0 2.0 51 98
+ 0.52084 1 2 cbr 210 ------- 0 0.0 2.0 51 98
- 0.52084 1 2 cbr 210 ------- 0 0.0 2.0 51 98
r 0.5264 1 2 cbr 210 ------- 0 0.0 2.0 50 97
+ 0.53 0 1 cbr 210 ------- 0 0.0 2.0 53 100
- 0.53 0 1 cbr 210 ------- 0 0.0 2.0 53 100
r 0.53084 0 1 cbr 210 ------- 0 0.0 2.0 52 99
+ 0.53084 1 2 cbr 210 ------- 0 0.0 2.0 52 99
- 0.53084 1 2 cbr 210 ------- 0 0.0 2.0 52 99
r 0.5364 1 2 cbr 210 ------- 0 0.0 2.0 51 98
+ 0.54 0 1 cbr 210 ------- 0 0.0 2.0 54 101
- 0.54 0 1 cbr 210 ------- 0 0.0 2.0 54 101
r 0.54084 0 1 cbr 210 ------- 0 0.0 2.0 53 100
+ 0.54084 1 2 cbr 210 ------- 0 0.0 2.0 53 100
- 0.54084 1 2 cbr 210 ------- 0 0.0 2.0 53 100
r 0.5464 1 2 cbr 210 ------- 0 0.0 2.0 52 99
+ 0.55 0 1 cbr 210 ------- 0 0.0 2.0 55 102
- 0.55 0 1 cbr 210 ------- 0 0.0 2.0 55 102
r 0.55084 0 1 cbr 210 ------- 0 0.0 2.0 54 101
+ 0.55084 1 2 cbr 210 ------- 0 0.0 2.0 54 101
- 0.55084 1 2 cbr 210 ------- 0 0.0 2.0 54 101
r 0.5564 1 2 cbr 210 ------- 0 0.0 2.0 53 100
+ 0.56 0 1 cbr 210 ------- 0 0.0 2.0 56 103
- 0.56 0 1 cbr 210 ------- 0 0.0 2.0 56 103
r 0.56084 0 1 cbr 210 ------- 0 0.0 2.0 55 102
+ 0.56084 1 2 cbr 210 ------- 0 0.0 2.0 55 102
- 0.56084 1 2 cbr 210 ------- 0 0.0 2.0 55 102
r 0.5664 1 2 cbr 210 ------- 0 0.0 2.0 54 101
+ 0.57 0 1 cbr 210 ------- 0 0.0 2.0 57 104
- 0.57 0 1 cbr 210 ------- 0 0.0 2.0 57 104
r 0.57084 0 1 cbr 210 ------- 0 0.0 2.0 56 103
+ 0.57084 1 2 cbr 210 ------- 0 0.0 2.0 56 103
- 0.57084 1 2 cbr 210 ------- 0 0.0 2.0 56 103
r 0.5764 1 2 cbr 210 ------- 0 0.0 2.0 55 102
+ 0.58 0 1 cbr 210 ------- 0 0.0 2.0 58 105
- 0.58 0 1 cbr 210 ------- 0 0.0 2.0 58 105
r 0.58084 0 1 cbr 210 ------- 0 0.0 2.0 57 104
+ 0.58084 1 2 cbr 210 ------- 0 0.0 2.0 57 104
- 0.58084 1 2 cbr 210 ------- 0 0.0 2.0 57 104
r 0.5864 1 2 cbr 210 ------- 0 0.0 2.0 56 103
+ 0.59 0 1 cbr 210 ------- 0 0.0 2.0 59 106
- 0.59 0 1 cbr 210 ------- 0 0.0 2.0 59 106
r 0.59084 0 1 cbr 210 ------- 0 0.0 2.0 58 105
+ 0.59084 1 2 cbr 210 ------- 0 0.0 2.0 58 105
- 0.59084 1 2 cbr 210 ------- 0 0.0 2.0 58 105
r 0.5964 1 2 cbr 210 ------- 0 0.0 2.0 57 104
+ 0.6 0 1 cbr 210 ------- 0 0.0 2.0 60 107
- 0.6 0 1 cbr 210 ------- 0 0.0 2.0 60 107
r 0.60084 0 1 cbr 210 ------- 0 0.0 2.0 59 106
+ 0.60084 1 2 cbr 210 ------- 0 0.0 2.0 59 106
- 0.60084 1 2 cbr 210 ------- 0 0.0 2.0 59 106
r 0.6064 1 2 cbr 210 ------- 0 0.0 2.0 58 105
+ 0.61 0 1 cbr 210 ------- 0 0.0 2.0 61 108
- 0.61 0 1 cbr 210 ------- 0 0.0 2.0 61 108
r 0.61084 0 1 cbr 210 ------- 0 0.0 2.0 60 107
+ 0.61084 1 2 cbr 210 ------- 0 0.0 2.0 60 107
- 0.61084 1 2 cbr 210 ------- 0 0.0 2.0 60 107
r 0.6164 1 2 cbr 210 ------- 0 0.0 2.0 59 106
+ 0.62 0 1 cbr 210 ------- 0 0.0 2.0 62 109
- 0.62 0 1 cbr 210 ------- 0 0.0 2.0 62 109
r 0.62084 0 1 cbr 210 ------- 0 0.0 2.0 61 108
+ 0.62084 1 2 cbr 210 ------- 0 0.0 2.0 61 108
- 0.62084 1 2 cbr 210 ------- 0 0.0 2.0 61 108
r 0.6264 1 2 cbr 210 ------- 0 0.0 2.0 60 107
+ 0.63 0 1 cbr 210 ------- 0 0.0 2.0 63 110
- 0.63 0 1 cbr 210 ------- 0 0.0 2.0 63 110
r 0.63084 0 1 cbr 210 ------- 0 0.0 2.0 62 109
+ 0.63084 1 2 cbr 210 ------- 0 0.0 2.0 62 109
- 0.63084 1 2 cbr 210 ------- 0 0.0 2.0 62 109
r 0.6364 1 2 cbr 210 ------- 0 0.0 2.0 61 108
+ 0.64 0 1 cbr 210 ------- 0 0.0 2.0 64 111
- 0.64 0 1 cbr 210 ------- 0 0.0 2.0 64 111
r 0.64084 0 1 cbr 210 ------- 0 0.0 2.0 63 110
+ 0.64084 1 2 cbr 210 ------- 0 0.0 2.0 63 110
- 0.64084 1 2 cbr 210 ------- 0 0.0 2.0 63 110
r 0.6464 1 2 cbr 210 ------- 0 0.0 2.0 62 109
+ 0.65 0 1 cbr 210 ------- 0 0.0 2.0 65 112
- 0.65 0 1 cbr 210 ------- 0 0.0 2.0 65 112
r 0.65084 0 1 cbr 210 ------- 0 0.0 2.0 64 111
+ 0.65084 1 2 cbr 210 ------- 0 0.0 2.0 64 111
- 0.65084 1 2 cbr 210 ------- 0 0.0 2.0 64 111
r 0.6564 1 2 cbr 210 ------- 0 0.0 2.0 63 110
+ 0.66 0 1 cbr 210 ------- 0 0.0 2.0 66 113
- 0.66 0 1 cbr 210 ------- 0 0.0 2.0 66 113
r 0.66084 0 1 cbr 210 ------- 0 0.0 2.0 65 112
+ 0.66084 1 2 cbr 210 ------- 0 0.0 2.0 65 112
- 0.66084 1 2 cbr 210 ------- 0 0.0 2.0 65 112
r 0.6664 1 2 cbr 210 ------- 0 0.0 2.0 64 111
+ 0.67 0 1 cbr 210 ------- 0 0.0 2.0 67 114
- 0.67 0 1 cbr 210 ------- 0 0.0 2.0 67 114
r 0.67084 0 1 cbr 210 ------- 0 0.0 2.0 66 113
+ 0.67084 1 2 cbr 210 ------- 0 0.0 2.0 66 113
- 0.67084 1 2 cbr 210 ------- 0 0.0 2.0 66 113
r 0.6764 1 2 cbr 210 ------- 0 0.0 2.0 65 112
+ 0.68 0 1 cbr 210 ------- 0 0.0 2.0 68 115
- 0.68 0 1 cbr 210 ------- 0 0.0 2.0 68 115
r 0.68084 0 1 cbr 210 ------- 0 0.0 2.0 67 114
+ 0.68084 1 2 cbr 210 ------- 0 0.0 2.0 67 114
- 0.68084 1 2 cbr 210 ------- 0 0.0 2.0 67 114
r 0.6864 1 2 cbr 210 ------- 0 0.0 2.0 66 113
+ 0.69 0 1 cbr 210 ------- 0 0.0 2.0 69 116
- 0.69 0 1 cbr 210 ------- 0 0.0 2.0 69 116
r 0.69084 0 1 cbr 210 ------- 0 0.0 2.0 68 115
+ 0.69084 1 2 cbr 210 ------- 0 0.0 2.0 68 115
- 0.69084 1 2 cbr 210 ------- 0 0.0 2.0 68 115
r 0.6964 1 2 cbr 210 ------- 0 0.0 2.0 67 114
+ 0.7 0 1 cbr 210 ------- 0 0.0 2.0 70 117
- 0.7 0 1 cbr 210 ------- 0 0.0 2.0 70 117
r 0.70084 0 1 cbr 210 ------- 0 0.0 2.0 69 116
+ 0.70084 1 2 cbr 210 ------- 0 0.0 2.0 69 116
- 0.70084 1 2 cbr 210 ------- 0 0.0 2.0 69 116
r 0.7064 1 2 cbr 210 ------- 0 0.0 2.0 68 115
+ 0.71 0 1 cbr 210 ------- 0 0.0 2.0 71 118
- 0.71 0 1 cbr 210 ------- 0 0.0 2.0 71 118
r 0.71084 0 1 cbr 210 ------- 0 0.0 2.0 70 117
+ 0.71084 1 2 cbr 210 ------- 0 0.0 2.0 70 117
- 0.71084 1 2 cbr 210 ------- 0 0.0 2.0 70 117
r 0.7164 1 2 cbr 210 ------- 0 0.0 2.0 69 116
+ 0.72 0 1 cbr 210 ------- 0 0.0 2.0 72 119
- 0.72 0 1 cbr 210 ------- 0 0.0 2.0 72 119
r 0.72084 0 1 cbr 210 ------- 0 0.0 2.0 71 118
+ 0.72084 1 2 cbr 210 ------- 0 0.0 2.0 71 118
- 0.72084 1 2 cbr 210 ------- 0 0.0 2.0 71 118
r 0.7264 1 2 cbr 210 ------- 0 0.0 2.0 70 117
+ 0.73 0 1 cbr 210 ------- 0 0.0 2.0 73 120
- 0.73 0 1 cbr 210 ------- 0 0.0 2.0 73 120
r 0.73084 0 1 cbr 210 ------- 0 0.0 2.0 72 119
+ 0.73084 1 2 cbr 210 ------- 0 0.0 2.0 72 119
- 0.73084 1 2 cbr 210 ------- 0 0.0 2.0 72 119
r 0.7364 1 2 cbr 210 ------- 0 0.0 2.0 71 118
+ 0.74 0 1 cbr 210 ------- 0 0.0 2.0 74 121
- 0.74 0 1 cbr 210 ------- 0 0.0 2.0 74 121
r 0.74084 0 1 cbr 210 ------- 0 0.0 2.0 73 120
+ 0.74084 1 2 cbr 210 ------- 0 0.0 2.0 73 120
- 0.74084 1 2 cbr 210 ------- 0 0.0 2.0 73 120
r 0.7464 1 2 cbr 210 ------- 0 0.0 2.0 72 119
+ 0.75 0 1 cbr 210 ------- 0 0.0 2.0 75 122
- 0.75 0 1 cbr 210 ------- 0 0.0 2.0 75 122
r 0.75084 0 1 cbr 210 ------- 0 0.0 2.0 74 121
+ 0.75084 1 2 cbr 210 ------- 0 0.0 2.0 74 121
- 0.75084 1 2 cbr 210 ------- 0 0.0 2.0 74 121
r 0.7564 1 2 cbr 210 ------- 0 0.0 2.0 73 120
+ 0.76 0 1 cbr 210 ------- 0 0.0 2.0 76 123
- 0.76 0 1 cbr 210 ------- 0 0.0 2.0 76 123
r 0.76084 0 1 cbr 210 ------- 0 0.0 2.0 75 122
+ 0.76084 1 2 cbr 210 ------- 0 0.0 2.0 75 122
- 0.76084 1 2 cbr 210 ------- 0 0.0 2.0 75 122
r 0.7664 1 2 cbr 210 ------- 0 0.0 2.0 74 121
+ 0.77 0 1 cbr 210 ------- 0 0.0 2.0 77 124
- 0.77 0 1 cbr 210 ------- 0 0.0 2.0 77 124
r 0.77084 0 1 cbr 210 ------- 0 0.0 2.0 76 123
+ 0.77084 1 2 cbr 210 ------- 0 0.0 2.0 76 123
- 0.77084 1 2 cbr 210 ------- 0 0.0 2.0 76 123
r 0.7764 1 2 cbr 210 ------- 0 0.0 2.0 75 122
+ 0.78 0 1 cbr 210 ------- 0 0.0 2.0 78 125
- 0.78 0 1 cbr 210 ------- 0 0.0 2.0 78 125
r 0.78084 0 1 cbr 210 ------- 0 0.0 2.0 77 124
+ 0.78084 1 2 cbr 210 ------- 0 0.0 2.0 77 124
- 0.78084 1 2 cbr 210 ------- 0 0.0 2.0 77 124
r 0.7864 1 2 cbr 210 ------- 0 0.0 2.0 76 123
+ 0.79 0 1 cbr 210 ------- 0 0.0 2.0 79 126
- 0.79 0 1 cbr 210 ------- 0 0.0 2.0 79 126
r 0.79084 0 1 cbr 210 ------- 0 0.0 2.0 78 125
+ 0.79084 1 2 cbr 210 ------- 0 0.0 2.0 78 125
- 0.79084 1 2 cbr 210 ------- 0 0.0 2.0 78 125
r 0.7964 1 2 cbr 210 ------- 0 0.0 2.0 77 124
+ 0.8 0 1 cbr 210 ------- 0 0.0 2.0 80 127
- 0.8 0 1 cbr 210 ------- 0 0.0 2.0 80 127
r 0.80084 0 1 cbr 210 ------- 0 0.0 2.0 79 126
+ 0.80084 1 2 cbr 210 ------- 0 0.0 2.0 79 126
- 0.80084 1 2 cbr 210 ------- 0 0.0 2.0 79 126
r 0.8064 1 2 cbr 210 ------- 0 0.0 2.0 78 125
+ 0.81 0 1 cbr 210 ------- 0 0.0 2.0 81 128
- 0.81 0 1 cbr 210 ------- 0 0.0 2.0 81 128
r 0.81084 0 1 cbr 210 ------- 0 0.0 2.0 80 127
+ 0.81084 1 2 cbr 210 ------- 0 0.0 2.0 80 127
- 0.81084 1 2 cbr 210 ------- 0 0.0 2.0 80 127
r 0.8164 1 2 cbr 210 ------- 0 0.0 2.0 79 126
+ 0.82 0 1 cbr 210 ------- 0 0.0 2.0 82 129
- 0.82 0 1 cbr 210 ------- 0 0.0 2.0 82 129
r 0.82084 0 1 cbr 210 ------- 0 0.0 2.0 81 128
+ 0.82084 1 2 cbr 210 ------- 0 0.0 2.0 81 128
- 0.82084 1 2 cbr 210 ------- 0 0.0 2.0 81 128
r 0.8264 1 2 cbr 210 ------- 0 0.0 2.0 80 127
+ 0.83 0 1 cbr 210 ------- 0 0.0 2.0 83 130
- 0.83 0 1 cbr 210 ------- 0 0.0 2.0 83 130
r 0.83084 0 1 cbr 210 ------- 0 0.0 2.0 82 129
+ 0.83084 1 2 cbr 210 ------- 0 0.0 2.0 82 129
- 0.83084 1 2 cbr 210 ------- 0 0.0 2.0 82 129
r 0.8364 1 2 cbr 210 ------- 0 0.0 2.0 81 128
+ 0.84 0 1 cbr 210 ------- 0 0.0 2.0 84 131
- 0.84 0 1 cbr 210 ------- 0 0.0 2.0 84 131
r 0.84084 0 1 cbr 210 ------- 0 0.0 2.0 83 130
+ 0.84084 1 2 cbr 210 ------- 0 0.0 2.0 83 130
- 0.84084 1 2 cbr 210 ------- 0 0.0 2.0 83 130
r 0.8464 1 2 cbr 210 ------- 0 0.0 2.0 82 129
+ 0.85 0 1 cbr 210 ------- 0 0.0 2.0 85 132
- 0.85 0 1 cbr 210 ------- 0 0.0 2.0 85 132
r 0.85084 0 1 cbr 210 ------- 0 0.0 2.0 84 131
+ 0.85084 1 2 cbr 210 ------- 0 0.0 2.0 84 131
- 0.85084 1 2 cbr 210 ------- 0 0.0 2.0 84 131
r 0.8564 1 2 cbr 210 ------- 0 0.0 2.0 83 130
+ 0.86 0 1 cbr 210 ------- 0 0.0 2.0 86 133
- 0.86 0 1 cbr 210 ------- 0 0.0 2.0 86 133
r 0.86084 0 1 cbr 210 ------- 0 0.0 2.0 85 132
+ 0.86084 1 2 cbr 210 ------- 0 0.0 2.0 85 132
- 0.86084 1 2 cbr 210 ------- 0 0.0 2.0 85 132
r 0.8664 1 2 cbr 210 ------- 0 0.0 2.0 84 131
+ 0.87 0 1 cbr 210 ------- 0 0.0 2.0 87 134
- 0.87 0 1 cbr 210 ------- 0 0.0 2.0 87 134
r 0.87084 0 1 cbr 210 ------- 0 0.0 2.0 86 133
+ 0.87084 1 2 cbr 210 ------- 0 0.0 2.0 86 133
- 0.87084 1 2 cbr 210 ------- 0 0.0 2.0 86 133
r 0.8764 1 2 cbr 210 ------- 0 0.0 2.0 85 132
+ 0.88 0 1 cbr 210 ------- 0 0.0 2.0 88 135
- 0.88 0 1 cbr 210 ------- 0 0.0 2.0 88 135
r 0.88084 0 1 cbr 210 ------- 0 0.0 2.0 87 134
+ 0.88084 1 2 cbr 210 ------- 0 0.0 2.0 87 134