V -t * -v 1.0a5 -a 0
A -t * -n 1 -p 0 -o 0x7fffffff -c 30 -a 1
A -t * -h 1 -m 1073741823 -s 0
n -t * -a 4 -s 4 -S UP -v circle -c black -i black
n -t * -a 0 -s 0 -S UP -v circle -c black -i black
n -t * -a 5 -s 5 -S UP -v circle -c black -i black
n -t * -a 1 -s 1 -S UP -v circle -c black -i black
n -t * -a 2 -s 2 -S UP -v circle -c black -i black
n -t * -a 3 -s 3 -S UP -v circle -c black -i black
l -t * -s 0 -d 1 -S UP -r 2000000 -D 0.01 -c black -o right-down
l -t * -s 1 -d 2 -S UP -r 3000000 -D 0.014999999999999999 -c black -o down
l -t * -s 2 -d 3 -S UP -r 1500000 -D 0.014999999999999999 -c black -o left-down
l -t * -s 3 -d 4 -S UP -r 2000000 -D 0.02 -c black -o left-up
l -t * -s 4 -d 5 -S UP -r 2000000 -D 0.025000000000000001 -c black -o up
l -t * -s 5 -d 0 -S UP -r 1500000 -D 0.02 -c black -o right-up
+ -t 0.000169788487334637 -s 0 -d 1 -p rtProtoDV -e 6 -c 0 -i 2 -a 0 -x {0.2 1.2 -1 ------- null}
- -t 0.000169788487334637 -s 0 -d 1 -p rtProtoDV -e 6 -c 0 -i 2 -a 0 -x {0.2 1.2 -1 ------- null}
h -t 0.000169788487334637 -s 0 -d 1 -p rtProtoDV -e 6 -c 0 -i 2 -a 0 -x {0.2 1.2 -1 ------- null}
+ -t 0.000169788487334637 -s 0 -d 5 -p rtProtoDV -e 6 -c 0 -i 3 -a 0 -x {0.2 5.1 -1 ------- null}
- -t 0.000169788487334637 -s 0 -d 5 -p rtProtoDV -e 6 -c 0 -i 3 -a 0 -x {0.2 5.1 -1 ------- null}
h -t 0.000169788487334637 -s 0 -d 5 -p rtProtoDV -e 6 -c 0 -i 3 -a 0 -x {0.2 5.1 -1 ------- null}
+ -t 0.00710233021858257 -s 2 -d 1 -p rtProtoDV -e 6 -c 0 -i 4 -a 0 -x {2.2 1.2 -1 ------- null}
- -t 0.00710233021858257 -s 2 -d 1 -p rtProtoDV -e 6 -c 0 -i 4 -a 0 -x {2.2 1.2 -1 ------- null}
h -t 0.00710233021858257 -s 2 -d 1 -p rtProtoDV -e 6 -c 0 -i 4 -a 0 -x {2.2 1.2 -1 ------- null}
+ -t 0.00710233021858257 -s 2 -d 3 -p rtProtoDV -e 6 -c 0 -i 5 -a 0 -x {2.2 3.2 -1 ------- null}
- -t 0.00710233021858257 -s 2 -d 3 -p rtProtoDV -e 6 -c 0 -i 5 -a 0 -x {2.2 3.2 -1 ------- null}
h -t 0.00710233021858257 -s 2 -d 3 -p rtProtoDV -e 6 -c 0 -i 5 -a 0 -x {2.2 3.2 -1 ------- null}
r -t 0.0101937884873346 -s 0 -d 1 -p rtProtoDV -e 6 -c 0 -i 2 -a 0 -x {0.2 1.2 -1 ------- null}
+ -t 0.0101937884873346 -s 1 -d 0 -p rtProtoDV -e 6 -c 0 -i 7 -a 0 -x {1.2 0.2 -1 ------- null}
- -t 0.0101937884873346 -s 1 -d 0 -p rtProtoDV -e 6 -c 0 -i 7 -a 0 -x {1.2 0.2 -1 ------- null}
h -t 0.0101937884873346 -s 1 -d 0 -p rtProtoDV -e 6 -c 0 -i 7 -a 0 -x {1.2 0.2 -1 ------- null}
+ -t 0.0101937884873346 -s 1 -d 2 -p rtProtoDV -e 6 -c 0 -i 8 -a 0 -x {1.2 2.2 -1 ------- null}
- -t 0.0101937884873346 -s 1 -d 2 -p rtProtoDV -e 6 -c 0 -i 8 -a 0 -x {1.2 2.2 -1 ------- null}
h -t 0.0101937884873346 -s 1 -d 2 -p rtProtoDV -e 6 -c 0 -i 8 -a 0 -x {1.2 2.2 -1 ------- null}
r -t 0.0202017884873346 -s 0 -d 5 -p rtProtoDV -e 6 -c 0 -i 3 -a 0 -x {0.2 5.1 -1 ------- null}
+ -t 0.0202017884873346 -s 5 -d 0 -p rtProtoDV -e 6 -c 0 -i 10 -a 0 -x {5.1 0.2 -1 ------- null}
- -t 0.0202017884873346 -s 5 -d 0 -p rtProtoDV -e 6 -c 0 -i 10 -a 0 -x {5.1 0.2 -1 ------- null}
h -t 0.0202017884873346 -s 5 -d 0 -p rtProtoDV -e 6 -c 0 -i 10 -a 0 -x {5.1 0.2 -1 ------- null}
+ -t 0.0202017884873346 -s 5 -d 4 -p rtProtoDV -e 6 -c 0 -i 11 -a 0 -x {5.1 4.1 -1 ------- null}
- -t 0.0202017884873346 -s 5 -d 4 -p rtProtoDV -e 6 -c 0 -i 11 -a 0 -x {5.1 4.1 -1 ------- null}
h -t 0.0202017884873346 -s 5 -d 4 -p rtProtoDV -e 6 -c 0 -i 11 -a 0 -x {5.1 4.1 -1 ------- null}
r -t 0.0202177884873346 -s 1 -d 0 -p rtProtoDV -e 6 -c 0 -i 7 -a 0 -x {1.2 0.2 -1 ------- null}
+ -t 0.0202177884873346 -s 0 -d 1 -p rtProtoDV -e 6 -c 0 -i 12 -a 0 -x {0.2 1.2 -1 ------- null}
- -t 0.0202177884873346 -s 0 -d 1 -p rtProtoDV -e 6 -c 0 -i 12 -a 0 -x {0.2 1.2 -1 ------- null}
h -t 0.0202177884873346 -s 0 -d 1 -p rtProtoDV -e 6 -c 0 -i 12 -a 0 -x {0.2 1.2 -1 ------- null}
+ -t 0.0202177884873346 -s 0 -d 5 -p rtProtoDV -e 6 -c 0 -i 13 -a 0 -x {0.2 5.1 -1 ------- null}
- -t 0.0202177884873346 -s 0 -d 5 -p rtProtoDV -e 6 -c 0 -i 13 -a 0 -x {0.2 5.1 -1 ------- null}
h -t 0.0202177884873346 -s 0 -d 5 -p rtProtoDV -e 6 -c 0 -i 13 -a 0 -x {0.2 5.1 -1 ------- null}
r -t 0.0221183302185826 -s 2 -d 1 -p rtProtoDV -e 6 -c 0 -i 4 -a 0 -x {2.2 1.2 -1 ------- null}
+ -t 0.0221183302185826 -s 1 -d 0 -p rtProtoDV -e 6 -c 0 -i 14 -a 0 -x {1.2 0.2 -1 ------- null}
- -t 0.0221183302185826 -s 1 -d 0 -p rtProtoDV -e 6 -c 0 -i 14 -a 0 -x {1.2 0.2 -1 ------- null}
h -t 0.0221183302185826 -s 1 -d 0 -p rtProtoDV -e 6 -c 0 -i 14 -a 0 -x {1.2 0.2 -1 ------- null}
+ -t 0.0221183302185826 -s 1 -d 2 -p rtProtoDV -e 6 -c 0 -i 15 -a 0 -x {1.2 2.2 -1 ------- null}
- -t 0.0221183302185826 -s 1 -d 2 -p rtProtoDV -e 6 -c 0 -i 15 -a 0 -x {1.2 2.2 -1 ------- null}
h -t 0.0221183302185826 -s 1 -d 2 -p rtProtoDV -e 6 -c 0 -i 15 -a 0 -x {1.2 2.2 -1 ------- null}
r -t 0.0221343302185826 -s 2 -d 3 -p rtProtoDV -e 6 -c 0 -i 5 -a 0 -x {2.2 3.2 -1 ------- null}
+ -t 0.0221343302185826 -s 3 -d 2 -p rtProtoDV -e 6 -c 0 -i 16 -a 0 -x {3.2 2.2 -1 ------- null}
- -t 0.0221343302185826 -s 3 -d 2 -p rtProtoDV -e 6 -c 0 -i 16 -a 0 -x {3.2 2.2 -1 ------- null}
h -t 0.0221343302185826 -s 3 -d 2 -p rtProtoDV -e 6 -c 0 -i 16 -a 0 -x {3.2 2.2 -1 ------- null}
+ -t 0.0221343302185826 -s 3 -d 4 -p rtProtoDV -e 6 -c 0 -i 17 -a 0 -x {3.2 4.1 -1 ------- null}
- -t 0.0221343302185826 -s 3 -d 4 -p rtProtoDV -e 6 -c 0 -i 17 -a 0 -x {3.2 4.1 -1 ------- null}
h -t 0.0221343302185826 -s 3 -d 4 -p rtProtoDV -e 6 -c 0 -i 17 -a 0 -x {3.2 4.1 -1 ------- null}
r -t 0.0252097884873346 -s 1 -d 2 -p rtProtoDV -e 6 -c 0 -i 8 -a 0 -x {1.2 2.2 -1 ------- null}
+ -t 0.0252097884873346 -s 2 -d 1 -p rtProtoDV -e 6 -c 0 -i 18 -a 0 -x {2.2 1.2 -1 ------- null}
- -t 0.0252097884873346 -s 2 -d 1 -p rtProtoDV -e 6 -c 0 -i 18 -a 0 -x {2.2 1.2 -1 ------- null}
h -t 0.0252097884873346 -s 2 -d 1 -p rtProtoDV -e 6 -c 0 -i 18 -a 0 -x {2.2 1.2 -1 ------- null}
+ -t 0.0252097884873346 -s 2 -d 3 -p rtProtoDV -e 6 -c 0 -i 19 -a 0 -x {2.2 3.2 -1 ------- null}
- -t 0.0252097884873346 -s 2 -d 3 -p rtProtoDV -e 6 -c 0 -i 19 -a 0 -x {2.2 3.2 -1 ------- null}
h -t 0.0252097884873346 -s 2 -d 3 -p rtProtoDV -e 6 -c 0 -i 19 -a 0 -x {2.2 3.2 -1 ------- null}
+ -t 0.03 -s 0 -d 1 -p cbr -e 210 -c 0 -i 20 -a 0 -x {0.0 2.0 3 ------- null}
- -t 0.03 -s 0 -d 1 -p cbr -e 210 -c 0 -i 20 -a 0 -x {0.0 2.0 3 ------- null}
h -t 0.03 -s 0 -d 1 -p cbr -e 210 -c 0 -i 20 -a 0 -x {0.0 2.0 -1 ------- null}
r -t 0.0302417884873346 -s 0 -d 1 -p rtProtoDV -e 6 -c 0 -i 12 -a 0 -x {0.2 1.2 -1 ------- null}
r -t 0.0321423302185826 -s 1 -d 0 -p rtProtoDV -e 6 -c 0 -i 14 -a 0 -x {1.2 0.2 -1 ------- null}
+ -t 0.0321423302185826 -s 0 -d 1 -p rtProtoDV -e 6 -c 0 -i 21 -a 0 -x {0.2 1.2 -1 ------- null}
- -t 0.0321423302185826 -s 0 -d 1 -p rtProtoDV -e 6 -c 0 -i 21 -a 0 -x {0.2 1.2 -1 ------- null}
h -t 0.0321423302185826 -s 0 -d 1 -p rtProtoDV -e 6 -c 0 -i 21 -a 0 -x {0.2 1.2 -1 ------- null}
+ -t 0.0321423302185826 -s 0 -d 5 -p rtProtoDV -e 6 -c 0 -i 22 -a 0 -x {0.2 5.1 -1 ------- null}
- -t 0.0321423302185826 -s 0 -d 5 -p rtProtoDV -e 6 -c 0 -i 22 -a 0 -x {0.2 5.1 -1 ------- null}
h -t 0.0321423302185826 -s 0 -d 5 -p rtProtoDV -e 6 -c 0 -i 22 -a 0 -x {0.2 5.1 -1 ------- null}
r -t 0.0371343302185826 -s 1 -d 2 -p rtProtoDV -e 6 -c 0 -i 15 -a 0 -x {1.2 2.2 -1 ------- null}
r -t 0.0371663302185826 -s 3 -d 2 -p rtProtoDV -e 6 -c 0 -i 16 -a 0 -x {3.2 2.2 -1 ------- null}
+ -t 0.0371663302185826 -s 2 -d 1 -p rtProtoDV -e 6 -c 0 -i 23 -a 0 -x {2.2 1.2 -1 ------- null}
- -t 0.0371663302185826 -s 2 -d 1 -p rtProtoDV -e 6 -c 0 -i 23 -a 0 -x {2.2 1.2 -1 ------- null}
h -t 0.0371663302185826 -s 2 -d 1 -p rtProtoDV -e 6 -c 0 -i 23 -a 0 -x {2.2 1.2 -1 ------- null}
+ -t 0.0371663302185826 -s 2 -d 3 -p rtProtoDV -e 6 -c 0 -i 24 -a 0 -x {2.2 3.2 -1 ------- null}
- -t 0.0371663302185826 -s 2 -d 3 -p rtProtoDV -e 6 -c 0 -i 24 -a 0 -x {2.2 3.2 -1 ------- null}
h -t 0.0371663302185826 -s 2 -d 3 -p rtProtoDV -e 6 -c 0 -i 24 -a 0 -x {2.2 3.2 -1 ------- null}
+ -t 0.04 -s 0 -d 1 -p cbr -e 210 -c 0 -i 25 -a 0 -x {0.0 2.0 4 ------- null}
- -t 0.04 -s 0 -d 1 -p cbr -e 210 -c 0 -i 25 -a 0 -x {0.0 2.0 4 ------- null}
h -t 0.04 -s 0 -d 1 -p cbr -e 210 -c 0 -i 25 -a 0 -x {0.0 2.0 -1 ------- null}
r -t 0.0402257884873346 -s 2 -d 1 -p rtProtoDV -e 6 -c 0 -i 18 -a 0 -x {2.2 1.2 -1 ------- null}
r -t 0.0402337884873346 -s 5 -d 0 -p rtProtoDV -e 6 -c 0 -i 10 -a 0 -x {5.1 0.2 -1 ------- null}
+ -t 0.0402337884873346 -s 0 -d 1 -p rtProtoDV -e 6 -c 0 -i 26 -a 0 -x {0.2 1.2 -1 ------- null}
+ -t 0.0402337884873346 -s 0 -d 5 -p rtProtoDV -e 6 -c 0 -i 27 -a 0 -x {0.2 5.1 -1 ------- null}
- -t 0.0402337884873346 -s 0 -d 5 -p rtProtoDV -e 6 -c 0 -i 27 -a 0 -x {0.2 5.1 -1 ------- null}
h -t 0.0402337884873346 -s 0 -d 5 -p rtProtoDV -e 6 -c 0 -i 27 -a 0 -x {0.2 5.1 -1 ------- null}
r -t 0.0402417884873346 -s 2 -d 3 -p rtProtoDV -e 6 -c 0 -i 19 -a 0 -x {2.2 3.2 -1 ------- null}
+ -t 0.0402417884873346 -s 3 -d 2 -p rtProtoDV -e 6 -c 0 -i 28 -a 0 -x {3.2 2.2 -1 ------- null}
- -t 0.0402417884873346 -s 3 -d 2 -p rtProtoDV -e 6 -c 0 -i 28 -a 0 -x {3.2 2.2 -1 ------- null}
h -t 0.0402417884873346 -s 3 -d 2 -p rtProtoDV -e 6 -c 0 -i 28 -a 0 -x {3.2 2.2 -1 ------- null}
+ -t 0.0402417884873346 -s 3 -d 4 -p rtProtoDV -e 6 -c 0 -i 29 -a 0 -x {3.2 4.1 -1 ------- null}
- -t 0.0402417884873346 -s 3 -d 4 -p rtProtoDV -e 6 -c 0 -i 29 -a 0 -x {3.2 4.1 -1 ------- null}
h -t 0.0402417884873346 -s 3 -d 4 -p rtProtoDV -e 6 -c 0 -i 29 -a 0 -x {3.2 4.1 -1 ------- null}
r -t 0.0402497884873346 -s 0 -d 5 -p rtProtoDV -e 6 -c 0 -i 13 -a 0 -x {0.2 5.1 -1 ------- null}
+ -t 0.0402497884873346 -s 5 -d 0 -p rtProtoDV -e 6 -c 0 -i 30 -a 0 -x {5.1 0.2 -1 ------- null}
- -t 0.0402497884873346 -s 5 -d 0 -p rtProtoDV -e 6 -c 0 -i 30 -a 0 -x {5.1 0.2 -1 ------- null}
h -t 0.0402497884873346 -s 5 -d 0 -p rtProtoDV -e 6 -c 0 -i 30 -a 0 -x {5.1 0.2 -1 ------- null}
+ -t 0.0402497884873346 -s 5 -d 4 -p rtProtoDV -e 6 -c 0 -i 31 -a 0 -x {5.1 4.1 -1 ------- null}
- -t 0.0402497884873346 -s 5 -d 4 -p rtProtoDV -e 6 -c 0 -i 31 -a 0 -x {5.1 4.1 -1 ------- null}
h -t 0.0402497884873346 -s 5 -d 4 -p rtProtoDV -e 6 -c 0 -i 31 -a 0 -x {5.1 4.1 -1 ------- null}
r -t 0.04084 -s 0 -d 1 -p cbr -e 210 -c 0 -i 20 -a 0 -x {0.0 2.0 3 ------- null}
+ -t 0.04084 -s 1 -d 2 -p cbr -e 210 -c 0 -i 20 -a 0 -x {0.0 2.0 3 ------- null}
- -t 0.04084 -s 1 -d 2 -p cbr -e 210 -c 0 -i 20 -a 0 -x {0.0 2.0 3 ------- null}
h -t 0.04084 -s 1 -d 2 -p cbr -e 210 -c 0 -i 20 -a 0 -x {0.0 2.0 -1 ------- null}
- -t 0.04084 -s 0 -d 1 -p rtProtoDV -e 6 -c 0 -i 26 -a 0 -x {0.2 1.2 -1 ------- null}
h -t 0.04084 -s 0 -d 1 -p rtProtoDV -e 6 -c 0 -i 26 -a 0 -x {0.2 1.2 -1 ------- null}
r -t 0.0421583302185826 -s 3 -d 4 -p rtProtoDV -e 6 -c 0 -i 17 -a 0 -x {3.2 4.1 -1 ------- null}
+ -t 0.0421583302185826 -s 4 -d 3 -p rtProtoDV -e 6 -c 0 -i 32 -a 0 -x {4.1 3.2 -1 ------- null}
- -t 0.0421583302185826 -s 4 -d 3 -p rtProtoDV -e 6 -c 0 -i 32 -a 0 -x {4.1 3.2 -1 ------- null}
h -t 0.0421583302185826 -s 4 -d 3 -p rtProtoDV -e 6 -c 0 -i 32 -a 0 -x {4.1 3.2 -1 ------- null}
+ -t 0.0421583302185826 -s 4 -d 5 -p rtProtoDV -e 6 -c 0 -i 33 -a 0 -x {4.1 5.1 -1 ------- null}
- -t 0.0421583302185826 -s 4 -d 5 -p rtProtoDV -e 6 -c 0 -i 33 -a 0 -x {4.1 5.1 -1 ------- null}
h -t 0.0421583302185826 -s 4 -d 5 -p rtProtoDV -e 6 -c 0 -i 33 -a 0 -x {4.1 5.1 -1 ------- null}
r -t 0.0421663302185826 -s 0 -d 1 -p rtProtoDV -e 6 -c 0 -i 21 -a 0 -x {0.2 1.2 -1 ------- null}
+ -t 0.04406133552271 -s 3 -d 2 -p rtProtoDV -e 6 -c 0 -i 34 -a 0 -x {3.2 2.2 -1 ------- null}
- -t 0.04406133552271 -s 3 -d 2 -p rtProtoDV -e 6 -c 0 -i 34 -a 0 -x {3.2 2.2 -1 ------- null}
h -t 0.04406133552271 -s 3 -d 2 -p rtProtoDV -e 6 -c 0 -i 34 -a 0 -x {3.2 2.2 -1 ------- null}
+ -t 0.04406133552271 -s 3 -d 4 -p rtProtoDV -e 6 -c 0 -i 35 -a 0 -x {3.2 4.1 -1 ------- null}
- -t 0.04406133552271 -s 3 -d 4 -p rtProtoDV -e 6 -c 0 -i 35 -a 0 -x {3.2 4.1 -1 ------- null}
h -t 0.04406133552271 -s 3 -d 4 -p rtProtoDV -e 6 -c 0 -i 35 -a 0 -x {3.2 4.1 -1 ------- null}
r -t 0.0452257884873346 -s 5 -d 4 -p rtProtoDV -e 6 -c 0 -i 11 -a 0 -x {5.1 4.1 -1 ------- null}
+ -t 0.0452257884873346 -s 4 -d 3 -p rtProtoDV -e 6 -c 0 -i 36 -a 0 -x {4.1 3.2 -1 ------- null}
- -t 0.0452257884873346 -s 4 -d 3 -p rtProtoDV -e 6 -c 0 -i 36 -a 0 -x {4.1 3.2 -1 ------- null}
h -t 0.0452257884873346 -s 4 -d 3 -p rtProtoDV -e 6 -c 0 -i 36 -a 0 -x {4.1 3.2 -1 ------- null}
+ -t 0.0452257884873346 -s 4 -d 5 -p rtProtoDV -e 6 -c 0 -i 37 -a 0 -x {4.1 5.1 -1 ------- null}
- -t 0.0452257884873346 -s 4 -d 5 -p rtProtoDV -e 6 -c 0 -i 37 -a 0 -x {4.1 5.1 -1 ------- null}
h -t 0.0452257884873346 -s 4 -d 5 -p rtProtoDV -e 6 -c 0 -i 37 -a 0 -x {4.1 5.1 -1 ------- null}
+ -t 0.05 -s 0 -d 1 -p cbr -e 210 -c 0 -i 38 -a 0 -x {0.0 2.0 5 ------- null}
- -t 0.05 -s 0 -d 1 -p cbr -e 210 -c 0 -i 38 -a 0 -x {0.0 2.0 5 ------- null}
h -t 0.05 -s 0 -d 1 -p cbr -e 210 -c 0 -i 38 -a 0 -x {0.0 2.0 -1 ------- null}
r -t 0.05084 -s 0 -d 1 -p cbr -e 210 -c 0 -i 25 -a 0 -x {0.0 2.0 4 ------- null}
+ -t 0.05084 -s 1 -d 2 -p cbr -e 210 -c 0 -i 25 -a 0 -x {0.0 2.0 4 ------- null}
- -t 0.05084 -s 1 -d 2 -p cbr -e 210 -c 0 -i 25 -a 0 -x {0.0 2.0 4 ------- null}
h -t 0.05084 -s 1 -d 2 -p cbr -e 210 -c 0 -i 25 -a 0 -x {0.0 2.0 -1 ------- null}
r -t 0.050864 -s 0 -d 1 -p rtProtoDV -e 6 -c 0 -i 26 -a 0 -x {0.2 1.2 -1 ------- null}
+ -t 0.050864 -s 1 -d 0 -p rtProtoDV -e 6 -c 0 -i 39 -a 0 -x {1.2 0.2 -1 ------- null}
- -t 0.050864 -s 1 -d 0 -p rtProtoDV -e 6 -c 0 -i 39 -a 0 -x {1.2 0.2 -1 ------- null}
h -t 0.050864 -s 1 -d 0 -p rtProtoDV -e 6 -c 0 -i 39 -a 0 -x {1.2 0.2 -1 ------- null}
+ -t 0.050864 -s 1 -d 2 -p rtProtoDV -e 6 -c 0 -i 40 -a 0 -x {1.2 2.2 -1 ------- null}
- -t 0.0514 -s 1 -d 2 -p rtProtoDV -e 6 -c 0 -i 40 -a 0 -x {1.2 2.2 -1 ------- null}
h -t 0.0514 -s 1 -d 2 -p rtProtoDV -e 6 -c 0 -i 40 -a 0 -x {1.2 2.2 -1 ------- null}
r -t 0.0521743302185826 -s 0 -d 5 -p rtProtoDV -e 6 -c 0 -i 22 -a 0 -x {0.2 5.1 -1 ------- null}
+ -t 0.0521743302185826 -s 5 -d 0 -p rtProtoDV -e 6 -c 0 -i 41 -a 0 -x {5.1 0.2 -1 ------- null}
- -t 0.0521743302185826 -s 5 -d 0 -p rtProtoDV -e 6 -c 0 -i 41 -a 0 -x {5.1 0.2 -1 ------- null}
h -t 0.0521743302185826 -s 5 -d 0 -p rtProtoDV -e 6 -c 0 -i 41 -a 0 -x {5.1 0.2 -1 ------- null}
+ -t 0.0521743302185826 -s 5 -d 4 -p rtProtoDV -e 6 -c 0 -i 42 -a 0 -x {5.1 4.1 -1 ------- null}
- -t 0.0521743302185826 -s 5 -d 4 -p rtProtoDV -e 6 -c 0 -i 42 -a 0 -x {5.1 4.1 -1 ------- null}
h -t 0.0521743302185826 -s 5 -d 4 -p rtProtoDV -e 6 -c 0 -i 42 -a 0 -x {5.1 4.1 -1 ------- null}
r -t 0.0521823302185826 -s 2 -d 1 -p rtProtoDV -e 6 -c 0 -i 23 -a 0 -x {2.2 1.2 -1 ------- null}
r -t 0.0521983302185826 -s 2 -d 3 -p rtProtoDV -e 6 -c 0 -i 24 -a 0 -x {2.2 3.2 -1 ------- null}
r -t 0.0552737884873346 -s 3 -d 2 -p rtProtoDV -e 6 -c 0 -i 28 -a 0 -x {3.2 2.2 -1 ------- null}
r -t 0.0564 -s 1 -d 2 -p cbr -e 210 -c 0 -i 20 -a 0 -x {0.0 2.0 3 ------- null}
r -t 0.05909333552271 -s 3 -d 2 -p rtProtoDV -e 6 -c 0 -i 34 -a 0 -x {3.2 2.2 -1 ------- null}
+ -t 0.06 -s 0 -d 1 -p cbr -e 210 -c 0 -i 43 -a 0 -x {0.0 2.0 6 ------- null}
- -t 0.06 -s 0 -d 1 -p cbr -e 210 -c 0 -i 43 -a 0 -x {0.0 2.0 6 ------- null}
h -t 0.06 -s 0 -d 1 -p cbr -e 210 -c 0 -i 43 -a 0 -x {0.0 2.0 -1 ------- null}
r -t 0.0602657884873346 -s 3 -d 4 -p rtProtoDV -e 6 -c 0 -i 29 -a 0 -x {3.2 4.1 -1 ------- null}
r -t 0.0602657884873346 -s 0 -d 5 -p rtProtoDV -e 6 -c 0 -i 27 -a 0 -x {0.2 5.1 -1 ------- null}
r -t 0.0602817884873346 -s 5 -d 0 -p rtProtoDV -e 6 -c 0 -i 30 -a 0 -x {5.1 0.2 -1 ------- null}
r -t 0.06084 -s 0 -d 1 -p cbr -e 210 -c 0 -i 38 -a 0 -x {0.0 2.0 5 ------- null}
+ -t 0.06084 -s 1 -d 2 -p cbr -e 210 -c 0 -i 38 -a 0 -x {0.0 2.0 5 ------- null}
- -t 0.06084 -s 1 -d 2 -p cbr -e 210 -c 0 -i 38 -a 0 -x {0.0 2.0 5 ------- null}
h -t 0.06084 -s 1 -d 2 -p cbr -e 210 -c 0 -i 38 -a 0 -x {0.0 2.0 -1 ------- null}
r -t 0.060888 -s 1 -d 0 -p rtProtoDV -e 6 -c 0 -i 39 -a 0 -x {1.2 0.2 -1 ------- null}
r -t 0.0621823302185826 -s 4 -d 3 -p rtProtoDV -e 6 -c 0 -i 32 -a 0 -x {4.1 3.2 -1 ------- null}
+ -t 0.0621823302185826 -s 3 -d 2 -p rtProtoDV -e 6 -c 0 -i 44 -a 0 -x {3.2 2.2 -1 ------- null}
- -t 0.0621823302185826 -s 3 -d 2 -p rtProtoDV -e 6 -c 0 -i 44 -a 0 -x {3.2 2.2 -1 ------- null}
h -t 0.0621823302185826 -s 3 -d 2 -p rtProtoDV -e 6 -c 0 -i 44 -a 0 -x {3.2 2.2 -1 ------- null}
+ -t 0.0621823302185826 -s 3 -d 4 -p rtProtoDV -e 6 -c 0 -i 45 -a 0 -x {3.2 4.1 -1 ------- null}
- -t 0.0621823302185826 -s 3 -d 4 -p rtProtoDV -e 6 -c 0 -i 45 -a 0 -x {3.2 4.1 -1 ------- null}
h -t 0.0621823302185826 -s 3 -d 4 -p rtProtoDV -e 6 -c 0 -i 45 -a 0 -x {3.2 4.1 -1 ------- null}
r -t 0.06408533552271 -s 3 -d 4 -p rtProtoDV -e 6 -c 0 -i 35 -a 0 -x {3.2 4.1 -1 ------- null}
r -t 0.0652497884873346 -s 4 -d 3 -p rtProtoDV -e 6 -c 0 -i 36 -a 0 -x {4.1 3.2 -1 ------- null}
r -t 0.0652737884873346 -s 5 -d 4 -p rtProtoDV -e 6 -c 0 -i 31 -a 0 -x {5.1 4.1 -1 ------- null}
r -t 0.0664 -s 1 -d 2 -p cbr -e 210 -c 0 -i 25 -a 0 -x {0.0 2.0 4 ------- null}
r -t 0.066416 -s 1 -d 2 -p rtProtoDV -e 6 -c 0 -i 40 -a 0 -x {1.2 2.2 -1 ------- null}
r -t 0.0671823302185826 -s 4 -d 5 -p rtProtoDV -e 6 -c 0 -i 33 -a 0 -x {4.1 5.1 -1 ------- null}
+ -t 0.0671823302185826 -s 5 -d 0 -p rtProtoDV -e 6 -c 0 -i 46 -a 0 -x {5.1 0.2 -1 ------- null}
- -t 0.0671823302185826 -s 5 -d 0 -p rtProtoDV -e 6 -c 0 -i 46 -a 0 -x {5.1 0.2 -1 ------- null}
h -t 0.0671823302185826 -s 5 -d 0 -p rtProtoDV -e 6 -c 0 -i 46 -a 0 -x {5.1 0.2 -1 ------- null}
+ -t 0.0671823302185826 -s 5 -d 4 -p rtProtoDV -e 6 -c 0 -i 47 -a 0 -x {5.1 4.1 -1 ------- null}
- -t 0.0671823302185826 -s 5 -d 4 -p rtProtoDV -e 6 -c 0 -i 47 -a 0 -x {5.1 4.1 -1 ------- null}
h -t 0.0671823302185826 -s 5 -d 4 -p rtProtoDV -e 6 -c 0 -i 47 -a 0 -x {5.1 4.1 -1 ------- null}
+ -t 0.07 -s 0 -d 1 -p cbr -e 210 -c 0 -i 48 -a 0 -x {0.0 2.0 7 ------- null}
- -t 0.07 -s 0 -d 1 -p cbr -e 210 -c 0 -i 48 -a 0 -x {0.0 2.0 7 ------- null}
h -t 0.07 -s 0 -d 1 -p cbr -e 210 -c 0 -i 48 -a 0 -x {0.0 2.0 -1 ------- null}
r -t 0.0702497884873346 -s 4 -d 5 -p rtProtoDV -e 6 -c 0 -i 37 -a 0 -x {4.1 5.1 -1 ------- null}
r -t 0.07084 -s 0 -d 1 -p cbr -e 210 -c 0 -i 43 -a 0 -x {0.0 2.0 6 ------- null}
+ -t 0.07084 -s 1 -d 2 -p cbr -e 210 -c 0 -i 43 -a 0 -x {0.0 2.0 6 ------- null}
- -t 0.07084 -s 1 -d 2 -p cbr -e 210 -c 0 -i 43 -a 0 -x {0.0 2.0 6 ------- null}
h -t 0.07084 -s 1 -d 2 -p cbr -e 210 -c 0 -i 43 -a 0 -x {0.0 2.0 -1 ------- null}
r -t 0.0722063302185826 -s 5 -d 0 -p rtProtoDV -e 6 -c 0 -i 41 -a 0 -x {5.1 0.2 -1 ------- null}
r -t 0.0764 -s 1 -d 2 -p cbr -e 210 -c 0 -i 38 -a 0 -x {0.0 2.0 5 ------- null}
r -t 0.0771983302185826 -s 5 -d 4 -p rtProtoDV -e 6 -c 0 -i 42 -a 0 -x {5.1 4.1 -1 ------- null}
r -t 0.0772143302185826 -s 3 -d 2 -p rtProtoDV -e 6 -c 0 -i 44 -a 0 -x {3.2 2.2 -1 ------- null}
+ -t 0.08 -s 0 -d 1 -p cbr -e 210 -c 0 -i 49 -a 0 -x {0.0 2.0 8 ------- null}
- -t 0.08 -s 0 -d 1 -p cbr -e 210 -c 0 -i 49 -a 0 -x {0.0 2.0 8 ------- null}
h -t 0.08 -s 0 -d 1 -p cbr -e 210 -c 0 -i 49 -a 0 -x {0.0 2.0 -1 ------- null}
r -t 0.08084 -s 0 -d 1 -p cbr -e 210 -c 0 -i 48 -a 0 -x {0.0 2.0 7 ------- null}
+ -t 0.08084 -s 1 -d 2 -p cbr -e 210 -c 0 -i 48 -a 0 -x {0.0 2.0 7 ------- null}
- -t 0.08084 -s 1 -d 2 -p cbr -e 210 -c 0 -i 48 -a 0 -x {0.0 2.0 7 ------- null}
h -t 0.08084 -s 1 -d 2 -p cbr -e 210 -c 0 -i 48 -a 0 -x {0.0 2.0 -1 ------- null}
r -t 0.0822063302185826 -s 3 -d 4 -p rtProtoDV -e 6 -c 0 -i 45 -a 0 -x {3.2 4.1 -1 ------- null}
r -t 0.0864 -s 1 -d 2 -p cbr -e 210 -c 0 -i 43 -a 0 -x {0.0 2.0 6 ------- null}
r -t 0.0872143302185826 -s 5 -d 0 -p rtProtoDV -e 6 -c 0 -i 46 -a 0 -x {5.1 0.2 -1 ------- null}
+ -t 0.09 -s 0 -d 1 -p cbr -e 210 -c 0 -i 50 -a 0 -x {0.0 2.0 9 ------- null}
- -t 0.09 -s 0 -d 1 -p cbr -e 210 -c 0 -i 50 -a 0 -x {0.0 2.0 9 ------- null}
h -t 0.09 -s 0 -d 1 -p cbr -e 210 -c 0 -i 50 -a 0 -x {0.0 2.0 -1 ------- null}
r -t 0.09084 -s 0 -d 1 -p cbr -e 210 -c 0 -i 49 -a 0 -x {0.0 2.0 8 ------- null}
+ -t 0.09084 -s 1 -d 2 -p cbr -e 210 -c 0 -i 49 -a 0 -x {0.0 2.0 8 ------- null}
- -t 0.09084 -s 1 -d 2 -p cbr -e 210 -c 0 -i 49 -a 0 -x {0.0 2.0 8 ------- null}
h -t 0.09084 -s 1 -d 2 -p cbr -e 210 -c 0 -i 49 -a 0 -x {0.0 2.0 -1 ------- null}
r -t 0.0922063302185826 -s 5 -d 4 -p rtProtoDV -e 6 -c 0 -i 47 -a 0 -x {5.1 4.1 -1 ------- null}
r -t 0.0964 -s 1 -d 2 -p cbr -e 210 -c 0 -i 48 -a 0 -x {0.0 2.0 7 ------- null}
+ -t 0.1 -s 0 -d 1 -p cbr -e 210 -c 0 -i 51 -a 0 -x {0.0 2.0 10 ------- null}
- -t 0.1 -s 0 -d 1 -p cbr -e 210 -c 0 -i 51 -a 0 -x {0.0 2.0 10 ------- null}
h -t 0.1 -s 0 -d 1 -p cbr -e 210 -c 0 -i 51 -a 0 -x {0.0 2.0 -1 ------- null}
r -t 0.10084 -s 0 -d 1 -p cbr -e 210 -c 0 -i 50 -a 0 -x {0.0 2.0 9 ------- null}
+ -t 0.10084 -s 1 -d 2 -p cbr -e 210 -c 0 -i 50 -a 0 -x {0.0 2.0 9 ------- null}
- -t 0.10084 -s 1 -d 2 -p cbr -e 210 -c 0 -i 50 -a 0 -x {0.0 2.0 9 ------- null}
h -t 0.10084 -s 1 -d 2 -p cbr -e 210 -c 0 -i 50 -a 0 -x {0.0 2.0 -1 ------- null}
r -t 0.1064 -s 1 -d 2 -p cbr -e 210 -c 0 -i 49 -a 0 -x {0.0 2.0 8 ------- null}
+ -t 0.11 -s 0 -d 1 -p cbr -e 210 -c 0 -i 52 -a 0 -x {0.0 2.0 11 ------- null}
- -t 0.11 -s 0 -d 1 -p cbr -e 210 -c 0 -i 52 -a 0 -x {0.0 2.0 11 ------- null}
h -t 0.11 -s 0 -d 1 -p cbr -e 210 -c 0 -i 52 -a 0 -x {0.0 2.0 -1 ------- null}
r -t 0.11084 -s 0 -d 1 -p cbr -e 210 -c 0 -i 51 -a 0 -x {0.0 2.0 10 ------- null}
+ -t 0.11084 -s 1 -d 2 -p cbr -e 210 -c 0 -i 51 -a 0 -x {0.0 2.0 10 ------- null}
- -t 0.11084 -s 1 -d 2 -p cbr -e 210 -c 0 -i 51 -a 0 -x {0.0 2.0 10 ------- null}
h -t 0.11084 -s 1 -d 2 -p cbr -e 210 -c 0 -i 51 -a 0 -x {0.0 2.0 -1 ------- null}
r -t 0.1164 -s 1 -d 2 -p cbr -e 210 -c 0 -i 50 -a 0 -x {0.0 2.0 9 ------- null}
+ -t 0.12 -s 0 -d 1 -p cbr -e 210 -c 0 -i 53 -a 0 -x {0.0 2.0 12 ------- null}
- -t 0.12 -s 0 -d 1 -p cbr -e 210 -c 0 -i 53 -a 0 -x {0.0 2.0 12 ------- null}
h -t 0.12 -s 0 -d 1 -p cbr -e 210 -c 0 -i 53 -a 0 -x {0.0 2.0 -1 ------- null}
r -t 0.12084 -s 0 -d 1 -p cbr -e 210 -c 0 -i 52 -a 0 -x {0.0 2.0 11 ------- null}
+ -t 0.12084 -s 1 -d 2 -p cbr -e 210 -c 0 -i 52 -a 0 -x {0.0 2.0 11 ------- null}
- -t 0.12084 -s 1 -d 2 -p cbr -e 210 -c 0 -i 52 -a 0 -x {0.0 2.0 11 ------- null}
h -t 0.12084 -s 1 -d 2 -p cbr -e 210 -c 0 -i 52 -a 0 -x {0.0 2.0 -1 ------- null}
r -t 0.1264 -s 1 -d 2 -p cbr -e 210 -c 0 -i 51 -a 0 -x {0.0 2.0 10 ------- null}
+ -t 0.13 -s 0 -d 1 -p cbr -e 210 -c 0 -i 54 -a 0 -x {0.0 2.0 13 ------- null}
- -t 0.13 -s 0 -d 1 -p cbr -e 210 -c 0 -i 54 -a 0 -x {0.0 2.0 13 ------- null}
h -t 0.13 -s 0 -d 1 -p cbr -e 210 -c 0 -i 54 -a 0 -x {0.0 2.0 -1 ------- null}
r -t 0.13084 -s 0 -d 1 -p cbr -e 210 -c 0 -i 53 -a 0 -x {0.0 2.0 12 ------- null}
+ -t 0.13084 -s 1 -d 2 -p cbr -e 210 -c 0 -i 53 -a 0 -x {0.0 2.0 12 ------- null}
- -t 0.13084 -s 1 -d 2 -p cbr -e 210 -c 0 -i 53 -a 0 -x {0.0 2.0 12 ------- null}
h -t 0.13084 -s 1 -d 2 -p cbr -e 210 -c 0 -i 53 -a 0 -x {0.0 2.0 -1 ------- null}
r -t 0.1364 -s 1 -d 2 -p cbr -e 210 -c 0 -i 52 -a 0 -x {0.0 2.0 11 ------- null}
+ -t 0.14 -s 0 -d 1 -p cbr -e 210 -c 0 -i 55 -a 0 -x {0.0 2.0 14 ------- null}
- -t 0.14 -s 0 -d 1 -p cbr -e 210 -c 0 -i 55 -a 0 -x {0.0 2.0 14 ------- null}
h -t 0.14 -s 0 -d 1 -p cbr -e 210 -c 0 -i 55 -a 0 -x {0.0 2.0 -1 ------- null}
r -t 0.14084 -s 0 -d 1 -p cbr -e 210 -c 0 -i 54 -a 0 -x {0.0 2.0 13 ------- null}
+ -t 0.14084 -s 1 -d 2 -p cbr -e 210 -c 0 -i 54 -a 0 -x {0.0 2.0 13 ------- null}
- -t 0.14084 -s 1 -d 2 -p cbr -e 210 -c 0 -i 54 -a 0 -x {0.0 2.0 13 ------- null}
h -t 0.14084 -s 1 -d 2 -p cbr -e 210 -c 0 -i 54 -a 0 -x {0.0 2.0 -1 ------- null}
r -t 0.1464 -s 1 -d 2 -p cbr -e 210 -c 0 -i 53 -a 0 -x {0.0 2.0 12 ------- null}
+ -t 0.15 -s 0 -d 1 -p cbr -e 210 -c 0 -i 56 -a 0 -x {0.0 2.0 15 ------- null}
- -t 0.15 -s 0 -d 1 -p cbr -e 210 -c 0 -i 56 -a 0 -x {0.0 2.0 15 ------- null}
h -t 0.15 -s 0 -d 1 -p cbr -e 210 -c 0 -i 56 -a 0 -x {0.0 2.0 -1 ------- null}
r -t 0.15084 -s 0 -d 1 -p cbr -e 210 -c 0 -i 55 -a 0 -x {0.0 2.0 14 ------- null}
+ -t 0.15084 -s 1 -d 2 -p cbr -e 210 -c 0 -i 55 -a 0 -x {0.0 2.0 14 ------- null}
- -t 0.15084 -s 1 -d 2 -p cbr -e 210 -c 0 -i 55 -a 0 -x {0.0 2.0 14 ------- null}
h -t 0.15084 -s 1 -d 2 -p cbr -e 210 -c 0 -i 55 -a 0 -x {0.0 2.0 -1 ------- null}
r -t 0.1564 -s 1 -d 2 -p cbr -e 210 -c 0 -i 54 -a 0 -x {0.0 2.0 13 ------- null}
+ -t 0.16 -s 0 -d 1 -p cbr -e 210 -c 0 -i 57 -a 0 -x {0.0 2.0 16 ------- null}
- -t 0.16 -s 0 -d 1 -p cbr -e 210 -c 0 -i 57 -a 0 -x {0.0 2.0 16 ------- null}
h -t 0.16 -s 0 -d 1 -p cbr -e 210 -c 0 -i 57 -a 0 -x {0.0 2.0 -1 ------- null}
r -t 0.16084 -s 0 -d 1 -p cbr -e 210 -c 0 -i 56 -a 0 -x {0.0 2.0 15 ------- null}
+ -t 0.16084 -s 1 -d 2 -p cbr -e 210 -c 0 -i 56 -a 0 -x {0.0 2.0 15 ------- null}
- -t 0.16084 -s 1 -d 2 -p cbr -e 210 -c 0 -i 56 -a 0 -x {0.0 2.0 15 ------- null}
h -t 0.16084 -s 1 -d 2 -p cbr -e 210 -c 0 -i 56 -a 0 -x {0.0 2.0 -1 ------- null}
r -t 0.1664 -s 1 -d 2 -p cbr -e 210 -c 0 -i 55 -a 0 -x {0.0 2.0 14 ------- null}
+ -t 0.17 -s 0 -d 1 -p cbr -e 210 -c 0 -i 58 -a 0 -x {0.0 2.0 17 ------- null}
- -t 0.17 -s 0 -d 1 -p cbr -e 210 -c 0 -i 58 -a 0 -x {0.0 2.0 17 ------- null}
h -t 0.17 -s 0 -d 1 -p cbr -e 210 -c 0 -i 58 -a 0 -x {0.0 2.0 -1 ------- null}
r -t 0.17084 -s 0 -d 1 -p cbr -e 210 -c 0 -i 57 -a 0 -x {0.0 2.0 16 ------- null}
+ -t 0.17084 -s 1 -d 2 -p cbr -e 210 -c 0 -i 57 -a 0 -x {0.0 2.0 16 ------- null}
- -t 0.17084 -s 1 -d 2 -p cbr -e 210 -c 0 -i 57 -a 0 -x {0.0 2.0 16 ------- null}
h -t 0.17084 -s 1 -d 2 -p cbr -e 210 -c 0 -i 57 -a 0 -x {0.0 2.0 -1 ------- null}
r -t 0.1764 -s 1 -d 2 -p cbr -e 210 -c 0 -i 56 -a 0 -x {0.0 2.0 15 ------- null}
+ -t 0.18 -s 0 -d 1 -p cbr -e 210 -c 0 -i 59 -a 0 -x {0.0 2.0 18 ------- null}
- -t 0.18 -s 0 -d 1 -p cbr -e 210 -c 0 -i 59 -a 0 -x {0.0 2.0 18 ------- null}
h -t 0.18 -s 0 -d 1 -p cbr -e 210 -c 0 -i 59 -a 0 -x {0.0 2.0 -1 ------- null}
r -t 0.18084 -s 0 -d 1 -p cbr -e 210 -c 0 -i 58 -a 0 -x {0.0 2.0 17 ------- null}
+ -t 0.18084 -s 1 -d 2 -p cbr -e 210 -c 0 -i 58 -a 0 -x {0.0 2.0 17 ------- null}
- -t 0.18084 -s 1 -d 2 -p cbr -e 210 -c 0 -i 58 -a 0 -x {0.0 2.0 17 ------- null}
h -t 0.18084 -s 1 -d 2 -p cbr -e 210 -c 0 -i 58 -a 0 -x {0.0 2.0 -1 ------- null}
r -t 0.1864 -s 1 -d 2 -p cbr -e 210 -c 0 -i 57 -a 0 -x {0.0 2.0 16 ------- null}
+ -t 0.19 -s 0 -d 1 -p cbr -e 210 -c 0 -i 60 -a 0 -x {0.0 2.0 19 ------- null}
- -t 0.19 -s 0 -d 1 -p cbr -e 210 -c 0 -i 60 -a 0 -x {0.0 2.0 19 ------- null}
h -t 0.19 -s 0 -d 1 -p cbr -e 210 -c 0 -i 60 -a 0 -x {0.0 2.0 -1 ------- null}
r -t 0.19084 -s 0 -d 1 -p cbr -e 210 -c 0 -i 59 -a 0 -x {0.0 2.0 18 ------- null}
+ -t 0.19084 -s 1 -d 2 -p cbr -e 210 -c 0 -i 59 -a 0 -x {0.0 2.0 18 ------- null}
- -t 0.19084 -s 1 -d 2 -p cbr -e 210 -c 0 -i 59 -a 0 -x {0.0 2.0 18 ------- null}
h -t 0.19084 -s 1 -d 2 -p cbr -e 210 -c 0 -i 59 -a 0 -x {0.0 2.0 -1 ------- null}
r -t 0.1964 -s 1 -d 2 -p cbr -e 210 -c 0 -i 58 -a 0 -x {0.0 2.0 17 ------- null}
+ -t 0.2 -s 0 -d 1 -p cbr -e 210 -c 0 -i 61 -a 0 -x {0.0 2.0 20 ------- null}
- -t 0.2 -s 0 -d 1 -p cbr -e 210 -c 0 -i 61 -a 0 -x {0.0 2.0 20 ------- null}
h -t 0.2 -s 0 -d 1 -p cbr -e 210 -c 0 -i 61 -a 0 -x {0.0 2.0 -1 ------- null}
r -t 0.20084 -s 0 -d 1 -p cbr -e 210 -c 0 -i 60 -a 0 -x {0.0 2.0 19 ------- null}
+ -t 0.20084 -s 1 -d 2 -p cbr -e 210 -c 0 -i 60 -a 0 -x {0.0 2.0 19 ------- null}
- -t 0.20084 -s 1 -d 2 -p cbr -e 210 -c 0 -i 60 -a 0 -x {0.0 2.0 19 ------- null}
h -t 0.20084 -s 1 -d 2 -p cbr -e 210 -c 0 -i 60 -a 0 -x {0.0 2.0 -1 ------- null}
r -t 0.2064 -s 1 -d 2 -p cbr -e 210 -c 0 -i 59 -a 0 -x {0.0 2.0 18 ------- null}
+ -t 0.21 -s 0 -d 1 -p cbr -e 210 -c 0 -i 62 -a 0 -x {0.0 2.0 21 ------- null}
- -t 0.21 -s 0 -d 1 -p cbr -e 210 -c 0 -i 62 -a 0 -x {0.0 2.0 21 ------- null}
h -t 0.21 -s 0 -d 1 -p cbr -e 210 -c 0 -i 62 -a 0 -x {0.0 2.0 -1 ------- null}
r -t 0.21084 -s 0 -d 1 -p cbr -e 210 -c 0 -i 61 -a 0 -x {0.0 2.0 20 ------- null}
+ -t 0.21084 -s 1 -d 2 -p cbr -e 210 -c 0 -i 61 -a 0 -x {0.0 2.0 20 ------- null}
- -t 0.21084 -s 1 -d 2 -p cbr -e 210 -c 0 -i 61 -a 0 -x {0.0 2.0 20 ------- null}
h -t 0.21084 -s 1 -d 2 -p cbr -e 210 -c 0 -i 61 -a 0 -x {0.0 2.0 -1 ------- null}
r -t 0.2164 -s 1 -d 2 -p cbr -e 210 -c 0 -i 60 -a 0 -x {0.0 2.0 19 ------- null}
+ -t 0.22 -s 0 -d 1 -p cbr -e 210 -c 0 -i 63 -a 0 -x {0.0 2.0 22 ------- null}
- -t 0.22 -s 0 -d 1 -p cbr -e 210 -c 0 -i 63 -a 0 -x {0.0 2.0 22 ------- null}
h -t 0.22 -s 0 -d 1 -p cbr -e 210 -c 0 -i 63 -a 0 -x {0.0 2.0 -1 ------- null}
+ -t 0.22058669092161 -s 4 -d 3 -p rtProtoDV -e 6 -c 0 -i 64 -a 0 -x {4.1 3.2 -1 ------- null}
- -t 0.22058669092161 -s 4 -d 3 -p rtProtoDV -e 6 -c 0 -i 64 -a 0 -x {4.1 3.2 -1 ------- null}
h -t 0.22058669092161 -s 4 -d 3 -p rtProtoDV -e 6 -c 0 -i 64 -a 0 -x {4.1 3.2 -1 ------- null}
+ -t 0.22058669092161 -s 4 -d 5 -p rtProtoDV -e 6 -c 0 -i 65 -a 0 -x {4.1 5.1 -1 ------- null}
- -t 0.22058669092161 -s 4 -d 5 -p rtProtoDV -e 6 -c 0 -i 65 -a 0 -x {4.1 5.1 -1 ------- null}
h -t 0.22058669092161 -s 4 -d 5 -p rtProtoDV -e 6 -c 0 -i 65 -a 0 -x {4.1 5.1 -1 ------- null}
r -t 0.22084 -s 0 -d 1 -p cbr -e 210 -c 0 -i 62 -a 0 -x {0.0 2.0 21 ------- null}
+ -t 0.22084 -s 1 -d 2 -p cbr -e 210 -c 0 -i 62 -a 0 -x {0.0 2.0 21 ------- null}
- -t 0.22084 -s 1 -d 2 -p cbr -e 210 -c 0 -i 62 -a 0 -x {0.0 2.0 21 ------- null}
h -t 0.22084 -s 1 -d 2 -p cbr -e 210 -c 0 -i 62 -a 0 -x {0.0 2.0 -1 ------- null}
r -t 0.2264 -s 1 -d 2 -p cbr -e 210 -c 0 -i 61 -a 0 -x {0.0 2.0 20 ------- null}
+ -t 0.23 -s 0 -d 1 -p cbr -e 210 -c 0 -i 66 -a 0 -x {0.0 2.0 23 ------- null}
- -t 0.23 -s 0 -d 1 -p cbr -e 210 -c 0 -i 66 -a 0 -x {0.0 2.0 23 ------- null}
h -t 0.23 -s 0 -d 1 -p cbr -e 210 -c 0 -i 66 -a 0 -x {0.0 2.0 -1 ------- null}
r -t 0.23084 -s 0 -d 1 -p cbr -e 210 -c 0 -i 63 -a 0 -x {0.0 2.0 22 ------- null}
+ -t 0.23084 -s 1 -d 2 -p cbr -e 210 -c 0 -i 63 -a 0 -x {0.0 2.0 22 ------- null}
- -t 0.23084 -s 1 -d 2 -p cbr -e 210 -c 0 -i 63 -a 0 -x {0.0 2.0 22 ------- null}
h -t 0.23084 -s 1 -d 2 -p cbr -e 210 -c 0 -i 63 -a 0 -x {0.0 2.0 -1 ------- null}
r -t 0.2364 -s 1 -d 2 -p cbr -e 210 -c 0 -i 62 -a 0 -x {0.0 2.0 21 ------- null}
+ -t 0.24 -s 0 -d 1 -p cbr -e 210 -c 0 -i 67 -a 0 -x {0.0 2.0 24 ------- null}
- -t 0.24 -s 0 -d 1 -p cbr -e 210 -c 0 -i 67 -a 0 -x {0.0 2.0 24 ------- null}