+ 1 0 2 cbr 210 ------- 0 0.0 4.2 0 0
- 1 0 2 cbr 210 ------- 0 0.0 4.2 0 0
+ 1.01 0 2 cbr 210 ------- 0 0.0 4.2 1 1
- 1.01 0 2 cbr 210 ------- 0 0.0 4.2 1 1
r 1.01084 0 2 cbr 210 ------- 0 0.0 4.2 0 0
+ 1.01084 2 3 cbr 210 ------- 0 0.0 4.2 0 0
- 1.01084 2 3 cbr 210 ------- 0 0.0 4.2 0 0
+ 1.02 0 2 cbr 210 ------- 0 0.0 4.2 2 2
- 1.02 0 2 cbr 210 ------- 0 0.0 4.2 2 2
r 1.02084 0 2 cbr 210 ------- 0 0.0 4.2 1 1
+ 1.02084 2 3 cbr 210 ------- 0 0.0 4.2 1 1
- 1.02084 2 3 cbr 210 ------- 0 0.0 4.2 1 1
r 1.02696 2 3 cbr 210 ------- 0 0.0 4.2 0 0
+ 1.02696 3 4 cbr 210 ------- 0 0.0 4.2 0 0
- 1.02696 3 4 cbr 210 ------- 0 0.0 4.2 0 0
+ 1.03 0 2 cbr 210 ------- 0 0.0 4.2 3 3
- 1.03 0 2 cbr 210 ------- 0 0.0 4.2 3 3
r 1.03084 0 2 cbr 210 ------- 0 0.0 4.2 2 2
+ 1.03084 2 3 cbr 210 ------- 0 0.0 4.2 2 2
- 1.03084 2 3 cbr 210 ------- 0 0.0 4.2 2 2
r 1.03696 2 3 cbr 210 ------- 0 0.0 4.2 1 1
+ 1.03696 3 4 cbr 210 ------- 0 0.0 4.2 1 1
- 1.03696 3 4 cbr 210 ------- 0 0.0 4.2 1 1
+ 1.04 0 2 cbr 210 ------- 0 0.0 4.2 4 4
- 1.04 0 2 cbr 210 ------- 0 0.0 4.2 4 4
r 1.04084 0 2 cbr 210 ------- 0 0.0 4.2 3 3
+ 1.04084 2 3 cbr 210 ------- 0 0.0 4.2 3 3
- 1.04084 2 3 cbr 210 ------- 0 0.0 4.2 3 3
r 1.04696 2 3 cbr 210 ------- 0 0.0 4.2 2 2
+ 1.04696 3 4 cbr 210 ------- 0 0.0 4.2 2 2
- 1.04696 3 4 cbr 210 ------- 0 0.0 4.2 2 2
r 1.0478 3 4 cbr 210 ------- 0 0.0 4.2 0 0
+ 1.05 0 2 cbr 210 ------- 0 0.0 4.2 5 5
- 1.05 0 2 cbr 210 ------- 0 0.0 4.2 5 5
r 1.05084 0 2 cbr 210 ------- 0 0.0 4.2 4 4
+ 1.05084 2 3 cbr 210 ------- 0 0.0 4.2 4 4
- 1.05084 2 3 cbr 210 ------- 0 0.0 4.2 4 4
r 1.05696 2 3 cbr 210 ------- 0 0.0 4.2 3 3
+ 1.05696 3 4 cbr 210 ------- 0 0.0 4.2 3 3
- 1.05696 3 4 cbr 210 ------- 0 0.0 4.2 3 3
r 1.0578 3 4 cbr 210 ------- 0 0.0 4.2 1 1
+ 1.06 0 2 cbr 210 ------- 0 0.0 4.2 6 6
- 1.06 0 2 cbr 210 ------- 0 0.0 4.2 6 6
r 1.06084 0 2 cbr 210 ------- 0 0.0 4.2 5 5
+ 1.06084 2 3 cbr 210 ------- 0 0.0 4.2 5 5
- 1.06084 2 3 cbr 210 ------- 0 0.0 4.2 5 5
r 1.06696 2 3 cbr 210 ------- 0 0.0 4.2 4 4
+ 1.06696 3 4 cbr 210 ------- 0 0.0 4.2 4 4
- 1.06696 3 4 cbr 210 ------- 0 0.0 4.2 4 4
r 1.0678 3 4 cbr 210 ------- 0 0.0 4.2 2 2
+ 1.07 0 2 cbr 210 ------- 0 0.0 4.2 7 7
- 1.07 0 2 cbr 210 ------- 0 0.0 4.2 7 7
r 1.07084 0 2 cbr 210 ------- 0 0.0 4.2 6 6
+ 1.07084 2 3 cbr 210 ------- 0 0.0 4.2 6 6
- 1.07084 2 3 cbr 210 ------- 0 0.0 4.2 6 6
r 1.07696 2 3 cbr 210 ------- 0 0.0 4.2 5 5
+ 1.07696 3 4 cbr 210 ------- 0 0.0 4.2 5 5
- 1.07696 3 4 cbr 210 ------- 0 0.0 4.2 5 5
r 1.0778 3 4 cbr 210 ------- 0 0.0 4.2 3 3
+ 1.08 0 2 cbr 210 ------- 0 0.0 4.2 8 8
- 1.08 0 2 cbr 210 ------- 0 0.0 4.2 8 8
r 1.08084 0 2 cbr 210 ------- 0 0.0 4.2 7 7
+ 1.08084 2 3 cbr 210 ------- 0 0.0 4.2 7 7
- 1.08084 2 3 cbr 210 ------- 0 0.0 4.2 7 7
r 1.08696 2 3 cbr 210 ------- 0 0.0 4.2 6 6
+ 1.08696 3 4 cbr 210 ------- 0 0.0 4.2 6 6
- 1.08696 3 4 cbr 210 ------- 0 0.0 4.2 6 6
r 1.0878 3 4 cbr 210 ------- 0 0.0 4.2 4 4
+ 1.09 0 2 cbr 210 ------- 0 0.0 4.2 9 9
- 1.09 0 2 cbr 210 ------- 0 0.0 4.2 9 9
r 1.09084 0 2 cbr 210 ------- 0 0.0 4.2 8 8
+ 1.09084 2 3 cbr 210 ------- 0 0.0 4.2 8 8
- 1.09084 2 3 cbr 210 ------- 0 0.0 4.2 8 8
r 1.09696 2 3 cbr 210 ------- 0 0.0 4.2 7 7
+ 1.09696 3 4 cbr 210 ------- 0 0.0 4.2 7 7
- 1.09696 3 4 cbr 210 ------- 0 0.0 4.2 7 7
r 1.0978 3 4 cbr 210 ------- 0 0.0 4.2 5 5
+ 1.1 0 2 cbr 210 ------- 0 0.0 4.2 10 10
- 1.1 0 2 cbr 210 ------- 0 0.0 4.2 10 10
r 1.10084 0 2 cbr 210 ------- 0 0.0 4.2 9 9
+ 1.10084 2 3 cbr 210 ------- 0 0.0 4.2 9 9
- 1.10084 2 3 cbr 210 ------- 0 0.0 4.2 9 9
r 1.10696 2 3 cbr 210 ------- 0 0.0 4.2 8 8
+ 1.10696 3 4 cbr 210 ------- 0 0.0 4.2 8 8
- 1.10696 3 4 cbr 210 ------- 0 0.0 4.2 8 8
r 1.1078 3 4 cbr 210 ------- 0 0.0 4.2 6 6
+ 1.11 0 2 cbr 210 ------- 0 0.0 4.2 11 11
- 1.11 0 2 cbr 210 ------- 0 0.0 4.2 11 11
r 1.11084 0 2 cbr 210 ------- 0 0.0 4.2 10 10
+ 1.11084 2 3 cbr 210 ------- 0 0.0 4.2 10 10
- 1.11084 2 3 cbr 210 ------- 0 0.0 4.2 10 10
r 1.11696 2 3 cbr 210 ------- 0 0.0 4.2 9 9
+ 1.11696 3 4 cbr 210 ------- 0 0.0 4.2 9 9
- 1.11696 3 4 cbr 210 ------- 0 0.0 4.2 9 9
r 1.1178 3 4 cbr 210 ------- 0 0.0 4.2 7 7
+ 1.12 0 2 cbr 210 ------- 0 0.0 4.2 12 12
- 1.12 0 2 cbr 210 ------- 0 0.0 4.2 12 12
r 1.12084 0 2 cbr 210 ------- 0 0.0 4.2 11 11
+ 1.12084 2 3 cbr 210 ------- 0 0.0 4.2 11 11
- 1.12084 2 3 cbr 210 ------- 0 0.0 4.2 11 11
r 1.12696 2 3 cbr 210 ------- 0 0.0 4.2 10 10
+ 1.12696 3 4 cbr 210 ------- 0 0.0 4.2 10 10
- 1.12696 3 4 cbr 210 ------- 0 0.0 4.2 10 10
r 1.1278 3 4 cbr 210 ------- 0 0.0 4.2 8 8
+ 1.13 0 2 cbr 210 ------- 0 0.0 4.2 13 13
- 1.13 0 2 cbr 210 ------- 0 0.0 4.2 13 13
r 1.13084 0 2 cbr 210 ------- 0 0.0 4.2 12 12
+ 1.13084 2 3 cbr 210 ------- 0 0.0 4.2 12 12
- 1.13084 2 3 cbr 210 ------- 0 0.0 4.2 12 12
r 1.13696 2 3 cbr 210 ------- 0 0.0 4.2 11 11
+ 1.13696 3 4 cbr 210 ------- 0 0.0 4.2 11 11
- 1.13696 3 4 cbr 210 ------- 0 0.0 4.2 11 11
r 1.1378 3 4 cbr 210 ------- 0 0.0 4.2 9 9
+ 1.14 0 2 cbr 210 ------- 0 0.0 4.2 14 14
- 1.14 0 2 cbr 210 ------- 0 0.0 4.2 14 14
r 1.14084 0 2 cbr 210 ------- 0 0.0 4.2 13 13
+ 1.14084 2 3 cbr 210 ------- 0 0.0 4.2 13 13
- 1.14084 2 3 cbr 210 ------- 0 0.0 4.2 13 13
r 1.14696 2 3 cbr 210 ------- 0 0.0 4.2 12 12
+ 1.14696 3 4 cbr 210 ------- 0 0.0 4.2 12 12
- 1.14696 3 4 cbr 210 ------- 0 0.0 4.2 12 12
r 1.1478 3 4 cbr 210 ------- 0 0.0 4.2 10 10
+ 1.15 0 2 cbr 210 ------- 0 0.0 4.2 15 15
- 1.15 0 2 cbr 210 ------- 0 0.0 4.2 15 15
r 1.15084 0 2 cbr 210 ------- 0 0.0 4.2 14 14
+ 1.15084 2 3 cbr 210 ------- 0 0.0 4.2 14 14
- 1.15084 2 3 cbr 210 ------- 0 0.0 4.2 14 14
r 1.15696 2 3 cbr 210 ------- 0 0.0 4.2 13 13
+ 1.15696 3 4 cbr 210 ------- 0 0.0 4.2 13 13
- 1.15696 3 4 cbr 210 ------- 0 0.0 4.2 13 13
r 1.1578 3 4 cbr 210 ------- 0 0.0 4.2 11 11
+ 1.16 0 2 cbr 210 ------- 0 0.0 4.2 16 16
- 1.16 0 2 cbr 210 ------- 0 0.0 4.2 16 16
r 1.16084 0 2 cbr 210 ------- 0 0.0 4.2 15 15
+ 1.16084 2 3 cbr 210 ------- 0 0.0 4.2 15 15
- 1.16084 2 3 cbr 210 ------- 0 0.0 4.2 15 15
r 1.16696 2 3 cbr 210 ------- 0 0.0 4.2 14 14
+ 1.16696 3 4 cbr 210 ------- 0 0.0 4.2 14 14
- 1.16696 3 4 cbr 210 ------- 0 0.0 4.2 14 14
r 1.1678 3 4 cbr 210 ------- 0 0.0 4.2 12 12
+ 1.17 0 2 cbr 210 ------- 0 0.0 4.2 17 17
- 1.17 0 2 cbr 210 ------- 0 0.0 4.2 17 17
r 1.17084 0 2 cbr 210 ------- 0 0.0 4.2 16 16
+ 1.17084 2 3 cbr 210 ------- 0 0.0 4.2 16 16
- 1.17084 2 3 cbr 210 ------- 0 0.0 4.2 16 16
r 1.17696 2 3 cbr 210 ------- 0 0.0 4.2 15 15
+ 1.17696 3 4 cbr 210 ------- 0 0.0 4.2 15 15
- 1.17696 3 4 cbr 210 ------- 0 0.0 4.2 15 15
r 1.1778 3 4 cbr 210 ------- 0 0.0 4.2 13 13
+ 1.18 0 2 cbr 210 ------- 0 0.0 4.2 18 18
- 1.18 0 2 cbr 210 ------- 0 0.0 4.2 18 18
r 1.18084 0 2 cbr 210 ------- 0 0.0 4.2 17 17
+ 1.18084 2 3 cbr 210 ------- 0 0.0 4.2 17 17
- 1.18084 2 3 cbr 210 ------- 0 0.0 4.2 17 17
r 1.18696 2 3 cbr 210 ------- 0 0.0 4.2 16 16
+ 1.18696 3 4 cbr 210 ------- 0 0.0 4.2 16 16
- 1.18696 3 4 cbr 210 ------- 0 0.0 4.2 16 16
r 1.1878 3 4 cbr 210 ------- 0 0.0 4.2 14 14
+ 1.19 0 2 cbr 210 ------- 0 0.0 4.2 19 19
- 1.19 0 2 cbr 210 ------- 0 0.0 4.2 19 19
r 1.19084 0 2 cbr 210 ------- 0 0.0 4.2 18 18
+ 1.19084 2 3 cbr 210 ------- 0 0.0 4.2 18 18
- 1.19084 2 3 cbr 210 ------- 0 0.0 4.2 18 18
r 1.19696 2 3 cbr 210 ------- 0 0.0 4.2 17 17
+ 1.19696 3 4 cbr 210 ------- 0 0.0 4.2 17 17
- 1.19696 3 4 cbr 210 ------- 0 0.0 4.2 17 17
r 1.1978 3 4 cbr 210 ------- 0 0.0 4.2 15 15
+ 1.2 0 2 cbr 210 ------- 0 0.0 4.2 20 20
- 1.2 0 2 cbr 210 ------- 0 0.0 4.2 20 20
r 1.20084 0 2 cbr 210 ------- 0 0.0 4.2 19 19
+ 1.20084 2 3 cbr 210 ------- 0 0.0 4.2 19 19
- 1.20084 2 3 cbr 210 ------- 0 0.0 4.2 19 19
r 1.20696 2 3 cbr 210 ------- 0 0.0 4.2 18 18
+ 1.20696 3 4 cbr 210 ------- 0 0.0 4.2 18 18
- 1.20696 3 4 cbr 210 ------- 0 0.0 4.2 18 18
r 1.2078 3 4 cbr 210 ------- 0 0.0 4.2 16 16
+ 1.21 0 2 cbr 210 ------- 0 0.0 4.2 21 21
- 1.21 0 2 cbr 210 ------- 0 0.0 4.2 21 21
r 1.21084 0 2 cbr 210 ------- 0 0.0 4.2 20 20
+ 1.21084 2 3 cbr 210 ------- 0 0.0 4.2 20 20
- 1.21084 2 3 cbr 210 ------- 0 0.0 4.2 20 20
r 1.21696 2 3 cbr 210 ------- 0 0.0 4.2 19 19
+ 1.21696 3 4 cbr 210 ------- 0 0.0 4.2 19 19
- 1.21696 3 4 cbr 210 ------- 0 0.0 4.2 19 19
r 1.2178 3 4 cbr 210 ------- 0 0.0 4.2 17 17
+ 1.22 0 2 cbr 210 ------- 0 0.0 4.2 22 22
- 1.22 0 2 cbr 210 ------- 0 0.0 4.2 22 22
r 1.22084 0 2 cbr 210 ------- 0 0.0 4.2 21 21
+ 1.22084 2 3 cbr 210 ------- 0 0.0 4.2 21 21
- 1.22084 2 3 cbr 210 ------- 0 0.0 4.2 21 21
r 1.22696 2 3 cbr 210 ------- 0 0.0 4.2 20 20
+ 1.22696 3 4 cbr 210 ------- 0 0.0 4.2 20 20
- 1.22696 3 4 cbr 210 ------- 0 0.0 4.2 20 20
r 1.2278 3 4 cbr 210 ------- 0 0.0 4.2 18 18
+ 1.23 0 2 cbr 210 ------- 0 0.0 4.2 23 23
- 1.23 0 2 cbr 210 ------- 0 0.0 4.2 23 23
r 1.23084 0 2 cbr 210 ------- 0 0.0 4.2 22 22
+ 1.23084 2 3 cbr 210 ------- 0 0.0 4.2 22 22
- 1.23084 2 3 cbr 210 ------- 0 0.0 4.2 22 22
r 1.23696 2 3 cbr 210 ------- 0 0.0 4.2 21 21
+ 1.23696 3 4 cbr 210 ------- 0 0.0 4.2 21 21
- 1.23696 3 4 cbr 210 ------- 0 0.0 4.2 21 21
r 1.2378 3 4 cbr 210 ------- 0 0.0 4.2 19 19
+ 1.24 0 2 cbr 210 ------- 0 0.0 4.2 24 24
- 1.24 0 2 cbr 210 ------- 0 0.0 4.2 24 24
r 1.24084 0 2 cbr 210 ------- 0 0.0 4.2 23 23
+ 1.24084 2 3 cbr 210 ------- 0 0.0 4.2 23 23
- 1.24084 2 3 cbr 210 ------- 0 0.0 4.2 23 23
r 1.24696 2 3 cbr 210 ------- 0 0.0 4.2 22 22
+ 1.24696 3 4 cbr 210 ------- 0 0.0 4.2 22 22
- 1.24696 3 4 cbr 210 ------- 0 0.0 4.2 22 22
r 1.2478 3 4 cbr 210 ------- 0 0.0 4.2 20 20
+ 1.25 0 2 cbr 210 ------- 0 0.0 4.2 25 25
- 1.25 0 2 cbr 210 ------- 0 0.0 4.2 25 25
r 1.25084 0 2 cbr 210 ------- 0 0.0 4.2 24 24
+ 1.25084 2 3 cbr 210 ------- 0 0.0 4.2 24 24
- 1.25084 2 3 cbr 210 ------- 0 0.0 4.2 24 24
r 1.25696 2 3 cbr 210 ------- 0 0.0 4.2 23 23
+ 1.25696 3 4 cbr 210 ------- 0 0.0 4.2 23 23
- 1.25696 3 4 cbr 210 ------- 0 0.0 4.2 23 23
r 1.2578 3 4 cbr 210 ------- 0 0.0 4.2 21 21
+ 1.26 0 2 cbr 210 ------- 0 0.0 4.2 26 26
- 1.26 0 2 cbr 210 ------- 0 0.0 4.2 26 26
r 1.26084 0 2 cbr 210 ------- 0 0.0 4.2 25 25
+ 1.26084 2 3 cbr 210 ------- 0 0.0 4.2 25 25
- 1.26084 2 3 cbr 210 ------- 0 0.0 4.2 25 25
r 1.26696 2 3 cbr 210 ------- 0 0.0 4.2 24 24
+ 1.26696 3 4 cbr 210 ------- 0 0.0 4.2 24 24
- 1.26696 3 4 cbr 210 ------- 0 0.0 4.2 24 24
r 1.2678 3 4 cbr 210 ------- 0 0.0 4.2 22 22
+ 1.27 0 2 cbr 210 ------- 0 0.0 4.2 27 27
- 1.27 0 2 cbr 210 ------- 0 0.0 4.2 27 27
r 1.27084 0 2 cbr 210 ------- 0 0.0 4.2 26 26
+ 1.27084 2 3 cbr 210 ------- 0 0.0 4.2 26 26
- 1.27084 2 3 cbr 210 ------- 0 0.0 4.2 26 26
r 1.27696 2 3 cbr 210 ------- 0 0.0 4.2 25 25
+ 1.27696 3 4 cbr 210 ------- 0 0.0 4.2 25 25
- 1.27696 3 4 cbr 210 ------- 0 0.0 4.2 25 25
r 1.2778 3 4 cbr 210 ------- 0 0.0 4.2 23 23
+ 1.28 0 2 cbr 210 ------- 0 0.0 4.2 28 28
- 1.28 0 2 cbr 210 ------- 0 0.0 4.2 28 28
r 1.28084 0 2 cbr 210 ------- 0 0.0 4.2 27 27
+ 1.28084 2 3 cbr 210 ------- 0 0.0 4.2 27 27
- 1.28084 2 3 cbr 210 ------- 0 0.0 4.2 27 27
r 1.28696 2 3 cbr 210 ------- 0 0.0 4.2 26 26
+ 1.28696 3 4 cbr 210 ------- 0 0.0 4.2 26 26
- 1.28696 3 4 cbr 210 ------- 0 0.0 4.2 26 26
r 1.2878 3 4 cbr 210 ------- 0 0.0 4.2 24 24
+ 1.29 0 2 cbr 210 ------- 0 0.0 4.2 29 29
- 1.29 0 2 cbr 210 ------- 0 0.0 4.2 29 29
r 1.29084 0 2 cbr 210 ------- 0 0.0 4.2 28 28
+ 1.29084 2 3 cbr 210 ------- 0 0.0 4.2 28 28
- 1.29084 2 3 cbr 210 ------- 0 0.0 4.2 28 28
r 1.29696 2 3 cbr 210 ------- 0 0.0 4.2 27 27
+ 1.29696 3 4 cbr 210 ------- 0 0.0 4.2 27 27
- 1.29696 3 4 cbr 210 ------- 0 0.0 4.2 27 27
r 1.2978 3 4 cbr 210 ------- 0 0.0 4.2 25 25
+ 1.3 0 2 cbr 210 ------- 0 0.0 4.2 30 30
- 1.3 0 2 cbr 210 ------- 0 0.0 4.2 30 30
r 1.30084 0 2 cbr 210 ------- 0 0.0 4.2 29 29
+ 1.30084 2 3 cbr 210 ------- 0 0.0 4.2 29 29
- 1.30084 2 3 cbr 210 ------- 0 0.0 4.2 29 29
r 1.30696 2 3 cbr 210 ------- 0 0.0 4.2 28 28
+ 1.30696 3 4 cbr 210 ------- 0 0.0 4.2 28 28
- 1.30696 3 4 cbr 210 ------- 0 0.0 4.2 28 28
r 1.3078 3 4 cbr 210 ------- 0 0.0 4.2 26 26
+ 1.31 0 2 cbr 210 ------- 0 0.0 4.2 31 31
- 1.31 0 2 cbr 210 ------- 0 0.0 4.2 31 31
r 1.31084 0 2 cbr 210 ------- 0 0.0 4.2 30 30
+ 1.31084 2 3 cbr 210 ------- 0 0.0 4.2 30 30
- 1.31084 2 3 cbr 210 ------- 0 0.0 4.2 30 30
r 1.31696 2 3 cbr 210 ------- 0 0.0 4.2 29 29
+ 1.31696 3 4 cbr 210 ------- 0 0.0 4.2 29 29
- 1.31696 3 4 cbr 210 ------- 0 0.0 4.2 29 29
r 1.3178 3 4 cbr 210 ------- 0 0.0 4.2 27 27
+ 1.32 0 2 cbr 210 ------- 0 0.0 4.2 32 32
- 1.32 0 2 cbr 210 ------- 0 0.0 4.2 32 32
r 1.32084 0 2 cbr 210 ------- 0 0.0 4.2 31 31
+ 1.32084 2 3 cbr 210 ------- 0 0.0 4.2 31 31
- 1.32084 2 3 cbr 210 ------- 0 0.0 4.2 31 31
r 1.32696 2 3 cbr 210 ------- 0 0.0 4.2 30 30
+ 1.32696 3 4 cbr 210 ------- 0 0.0 4.2 30 30
- 1.32696 3 4 cbr 210 ------- 0 0.0 4.2 30 30
r 1.3278 3 4 cbr 210 ------- 0 0.0 4.2 28 28
+ 1.33 0 2 cbr 210 ------- 0 0.0 4.2 33 33
- 1.33 0 2 cbr 210 ------- 0 0.0 4.2 33 33
r 1.33084 0 2 cbr 210 ------- 0 0.0 4.2 32 32
+ 1.33084 2 3 cbr 210 ------- 0 0.0 4.2 32 32
- 1.33084 2 3 cbr 210 ------- 0 0.0 4.2 32 32
r 1.33696 2 3 cbr 210 ------- 0 0.0 4.2 31 31
+ 1.33696 3 4 cbr 210 ------- 0 0.0 4.2 31 31
- 1.33696 3 4 cbr 210 ------- 0 0.0 4.2 31 31
r 1.3378 3 4 cbr 210 ------- 0 0.0 4.2 29 29
+ 1.34 0 2 cbr 210 ------- 0 0.0 4.2 34 34
- 1.34 0 2 cbr 210 ------- 0 0.0 4.2 34 34
r 1.34084 0 2 cbr 210 ------- 0 0.0 4.2 33 33
+ 1.34084 2 3 cbr 210 ------- 0 0.0 4.2 33 33
- 1.34084 2 3 cbr 210 ------- 0 0.0 4.2 33 33
r 1.34696 2 3 cbr 210 ------- 0 0.0 4.2 32 32
+ 1.34696 3 4 cbr 210 ------- 0 0.0 4.2 32 32
- 1.34696 3 4 cbr 210 ------- 0 0.0 4.2 32 32
r 1.3478 3 4 cbr 210 ------- 0 0.0 4.2 30 30
+ 1.35 0 2 cbr 210 ------- 0 0.0 4.2 35 35
- 1.35 0 2 cbr 210 ------- 0 0.0 4.2 35 35
r 1.35084 0 2 cbr 210 ------- 0 0.0 4.2 34 34
+ 1.35084 2 3 cbr 210 ------- 0 0.0 4.2 34 34
- 1.35084 2 3 cbr 210 ------- 0 0.0 4.2 34 34
r 1.35696 2 3 cbr 210 ------- 0 0.0 4.2 33 33
+ 1.35696 3 4 cbr 210 ------- 0 0.0 4.2 33 33
- 1.35696 3 4 cbr 210 ------- 0 0.0 4.2 33 33
r 1.3578 3 4 cbr 210 ------- 0 0.0 4.2 31 31
+ 1.36 0 2 cbr 210 ------- 0 0.0 4.2 36 36
- 1.36 0 2 cbr 210 ------- 0 0.0 4.2 36 36
r 1.36084 0 2 cbr 210 ------- 0 0.0 4.2 35 35
+ 1.36084 2 3 cbr 210 ------- 0 0.0 4.2 35 35
- 1.36084 2 3 cbr 210 ------- 0 0.0 4.2 35 35
r 1.36696 2 3 cbr 210 ------- 0 0.0 4.2 34 34
+ 1.36696 3 4 cbr 210 ------- 0 0.0 4.2 34 34
- 1.36696 3 4 cbr 210 ------- 0 0.0 4.2 34 34
r 1.3678 3 4 cbr 210 ------- 0 0.0 4.2 32 32
+ 1.37 0 2 cbr 210 ------- 0 0.0 4.2 37 37
- 1.37 0 2 cbr 210 ------- 0 0.0 4.2 37 37
r 1.37084 0 2 cbr 210 ------- 0 0.0 4.2 36 36
+ 1.37084 2 3 cbr 210 ------- 0 0.0 4.2 36 36
- 1.37084 2 3 cbr 210 ------- 0 0.0 4.2 36 36
r 1.37696 2 3 cbr 210 ------- 0 0.0 4.2 35 35
+ 1.37696 3 4 cbr 210 ------- 0 0.0 4.2 35 35
- 1.37696 3 4 cbr 210 ------- 0 0.0 4.2 35 35
r 1.3778 3 4 cbr 210 ------- 0 0.0 4.2 33 33
+ 1.38 0 2 cbr 210 ------- 0 0.0 4.2 38 38
- 1.38 0 2 cbr 210 ------- 0 0.0 4.2 38 38
r 1.38084 0 2 cbr 210 ------- 0 0.0 4.2 37 37
+ 1.38084 2 3 cbr 210 ------- 0 0.0 4.2 37 37
- 1.38084 2 3 cbr 210 ------- 0 0.0 4.2 37 37
r 1.38696 2 3 cbr 210 ------- 0 0.0 4.2 36 36
+ 1.38696 3 4 cbr 210 ------- 0 0.0 4.2 36 36
- 1.38696 3 4 cbr 210 ------- 0 0.0 4.2 36 36
r 1.3878 3 4 cbr 210 ------- 0 0.0 4.2 34 34
+ 1.39 0 2 cbr 210 ------- 0 0.0 4.2 39 39
- 1.39 0 2 cbr 210 ------- 0 0.0 4.2 39 39
r 1.39084 0 2 cbr 210 ------- 0 0.0 4.2 38 38
+ 1.39084 2 3 cbr 210 ------- 0 0.0 4.2 38 38
- 1.39084 2 3 cbr 210 ------- 0 0.0 4.2 38 38
r 1.39696 2 3 cbr 210 ------- 0 0.0 4.2 37 37
+ 1.39696 3 4 cbr 210 ------- 0 0.0 4.2 37 37
- 1.39696 3 4 cbr 210 ------- 0 0.0 4.2 37 37
r 1.3978 3 4 cbr 210 ------- 0 0.0 4.2 35 35
+ 1.4 0 2 cbr 210 ------- 0 0.0 4.2 40 40
- 1.4 0 2 cbr 210 ------- 0 0.0 4.2 40 40
r 1.40084 0 2 cbr 210 ------- 0 0.0 4.2 39 39
+ 1.40084 2 3 cbr 210 ------- 0 0.0 4.2 39 39
- 1.40084 2 3 cbr 210 ------- 0 0.0 4.2 39 39
r 1.40696 2 3 cbr 210 ------- 0 0.0 4.2 38 38
+ 1.40696 3 4 cbr 210 ------- 0 0.0 4.2 38 38
- 1.40696 3 4 cbr 210 ------- 0 0.0 4.2 38 38
r 1.4078 3 4 cbr 210 ------- 0 0.0 4.2 36 36
+ 1.41 0 2 cbr 210 ------- 0 0.0 4.2 41 41
- 1.41 0 2 cbr 210 ------- 0 0.0 4.2 41 41
r 1.41084 0 2 cbr 210 ------- 0 0.0 4.2 40 40
+ 1.41084 2 3 cbr 210 ------- 0 0.0 4.2 40 40
- 1.41084 2 3 cbr 210 ------- 0 0.0 4.2 40 40
r 1.41696 2 3 cbr 210 ------- 0 0.0 4.2 39 39
+ 1.41696 3 4 cbr 210 ------- 0 0.0 4.2 39 39
- 1.41696 3 4 cbr 210 ------- 0 0.0 4.2 39 39
r 1.4178 3 4 cbr 210 ------- 0 0.0 4.2 37 37
+ 1.42 0 2 cbr 210 ------- 0 0.0 4.2 42 42
- 1.42 0 2 cbr 210 ------- 0 0.0 4.2 42 42
r 1.42084 0 2 cbr 210 ------- 0 0.0 4.2 41 41
+ 1.42084 2 3 cbr 210 ------- 0 0.0 4.2 41 41
- 1.42084 2 3 cbr 210 ------- 0 0.0 4.2 41 41
r 1.42696 2 3 cbr 210 ------- 0 0.0 4.2 40 40
+ 1.42696 3 4 cbr 210 ------- 0 0.0 4.2 40 40
- 1.42696 3 4 cbr 210 ------- 0 0.0 4.2 40 40
r 1.4278 3 4 cbr 210 ------- 0 0.0 4.2 38 38
+ 1.43 0 2 cbr 210 ------- 0 0.0 4.2 43 43
- 1.43 0 2 cbr 210 ------- 0 0.0 4.2 43 43
r 1.43084 0 2 cbr 210 ------- 0 0.0 4.2 42 42
+ 1.43084 2 3 cbr 210 ------- 0 0.0 4.2 42 42
- 1.43084 2 3 cbr 210 ------- 0 0.0 4.2 42 42
r 1.43696 2 3 cbr 210 ------- 0 0.0 4.2 41 41
+ 1.43696 3 4 cbr 210 ------- 0 0.0 4.2 41 41
- 1.43696 3 4 cbr 210 ------- 0 0.0 4.2 41 41
r 1.4378 3 4 cbr 210 ------- 0 0.0 4.2 39 39
+ 1.44 0 2 cbr 210 ------- 0 0.0 4.2 44 44
- 1.44 0 2 cbr 210 ------- 0 0.0 4.2 44 44
r 1.44084 0 2 cbr 210 ------- 0 0.0 4.2 43 43
+ 1.44084 2 3 cbr 210 ------- 0 0.0 4.2 43 43
- 1.44084 2 3 cbr 210 ------- 0 0.0 4.2 43 43
r 1.44696 2 3 cbr 210 ------- 0 0.0 4.2 42 42
+ 1.44696 3 4 cbr 210 ------- 0 0.0 4.2 42 42
- 1.44696 3 4 cbr 210 ------- 0 0.0 4.2 42 42
r 1.4478 3 4 cbr 210 ------- 0 0.0 4.2 40 40
+ 1.45 0 2 cbr 210 ------- 0 0.0 4.2 45 45
- 1.45 0 2 cbr 210 ------- 0 0.0 4.2 45 45
r 1.45084 0 2 cbr 210 ------- 0 0.0 4.2 44 44
+ 1.45084 2 3 cbr 210 ------- 0 0.0 4.2 44 44
- 1.45084 2 3 cbr 210 ------- 0 0.0 4.2 44 44
r 1.45696 2 3 cbr 210 ------- 0 0.0 4.2 43 43
+ 1.45696 3 4 cbr 210 ------- 0 0.0 4.2 43 43
- 1.45696 3 4 cbr 210 ------- 0 0.0 4.2 43 43
r 1.4578 3 4 cbr 210 ------- 0 0.0 4.2 41 41
+ 1.46 0 2 cbr 210 ------- 0 0.0 4.2 46 46
- 1.46 0 2 cbr 210 ------- 0 0.0 4.2 46 46
r 1.46084 0 2 cbr 210 ------- 0 0.0 4.2 45 45
+ 1.46084 2 3 cbr 210 ------- 0 0.0 4.2 45 45
- 1.46084 2 3 cbr 210 ------- 0 0.0 4.2 45 45
r 1.46696 2 3 cbr 210 ------- 0 0.0 4.2 44 44
+ 1.46696 3 4 cbr 210 ------- 0 0.0 4.2 44 44
- 1.46696 3 4 cbr 210 ------- 0 0.0 4.2 44 44
r 1.4678 3 4 cbr 210 ------- 0 0.0 4.2 42 42
+ 1.47 0 2 cbr 210 ------- 0 0.0 4.2 47 47
- 1.47 0 2 cbr 210 ------- 0 0.0 4.2 47 47
r 1.47084 0 2 cbr 210 ------- 0 0.0 4.2 46 46
+ 1.47084 2 3 cbr 210 ------- 0 0.0 4.2 46 46
- 1.47084 2 3 cbr 210 ------- 0 0.0 4.2 46 46
r 1.47696 2 3 cbr 210 ------- 0 0.0 4.2 45 45
+ 1.47696 3 4 cbr 210 ------- 0 0.0 4.2 45 45
- 1.47696 3 4 cbr 210 ------- 0 0.0 4.2 45 45
r 1.4778 3 4 cbr 210 ------- 0 0.0 4.2 43 43
+ 1.48 0 2 cbr 210 ------- 0 0.0 4.2 48 48
- 1.48 0 2 cbr 210 ------- 0 0.0 4.2 48 48
r 1.48084 0 2 cbr 210 ------- 0 0.0 4.2 47 47
+ 1.48084 2 3 cbr 210 ------- 0 0.0 4.2 47 47
- 1.48084 2 3 cbr 210 ------- 0 0.0 4.2 47 47
r 1.48696 2 3 cbr 210 ------- 0 0.0 4.2 46 46
+ 1.48696 3 4 cbr 210 ------- 0 0.0 4.2 46 46
- 1.48696 3 4 cbr 210 ------- 0 0.0 4.2 46 46
r 1.4878 3 4 cbr 210 ------- 0 0.0 4.2 44 44
+ 1.49 0 2 cbr 210 ------- 0 0.0 4.2 49 49
- 1.49 0 2 cbr 210 ------- 0 0.0 4.2 49 49
r 1.49084 0 2 cbr 210 ------- 0 0.0 4.2 48 48
+ 1.49084 2 3 cbr 210 ------- 0 0.0 4.2 48 48
- 1.49084 2 3 cbr 210 ------- 0 0.0 4.2 48 48
r 1.49696 2 3 cbr 210 ------- 0 0.0 4.2 47 47
+ 1.49696 3 4 cbr 210 ------- 0 0.0 4.2 47 47
- 1.49696 3 4 cbr 210 ------- 0 0.0 4.2 47 47
r 1.4978 3 4 cbr 210 ------- 0 0.0 4.2 45 45
+ 1.5 0 2 cbr 210 ------- 0 0.0 4.2 50 50
- 1.5 0 2 cbr 210 ------- 0 0.0 4.2 50 50
r 1.50084 0 2 cbr 210 ------- 0 0.0 4.2 49 49
+ 1.50084 2 3 cbr 210 ------- 0 0.0 4.2 49 49
- 1.50084 2 3 cbr 210 ------- 0 0.0 4.2 49 49
r 1.50696 2 3 cbr 210 ------- 0 0.0 4.2 48 48
+ 1.50696 3 4 cbr 210 ------- 0 0.0 4.2 48 48
- 1.50696 3 4 cbr 210 ------- 0 0.0 4.2 48 48
r 1.5078 3 4 cbr 210 ------- 0 0.0 4.2 46 46
+ 1.51 0 2 cbr 210 ------- 0 0.0 4.2 51 51
- 1.51 0 2 cbr 210 ------- 0 0.0 4.2 51 51
r 1.51084 0 2 cbr 210 ------- 0 0.0 4.2 50 50
+ 1.51084 2 3 cbr 210 ------- 0 0.0 4.2 50 50
- 1.51084 2 3 cbr 210 ------- 0 0.0 4.2 50 50
r 1.51696 2 3 cbr 210 ------- 0 0.0 4.2 49 49
+ 1.51696 3 4 cbr 210 ------- 0 0.0 4.2 49 49
- 1.51696 3 4 cbr 210 ------- 0 0.0 4.2 49 49
r 1.5178 3 4 cbr 210 ------- 0 0.0 4.2 47 47
+ 1.52 0 2 cbr 210 ------- 0 0.0 4.2 52 52
- 1.52 0 2 cbr 210 ------- 0 0.0 4.2 52 52
r 1.52084 0 2 cbr 210 ------- 0 0.0 4.2 51 51
+ 1.52084 2 3 cbr 210 ------- 0 0.0 4.2 51 51
- 1.52084 2 3 cbr 210 ------- 0 0.0 4.2 51 51
r 1.52696 2 3 cbr 210 ------- 0 0.0 4.2 50 50
+ 1.52696 3 4 cbr 210 ------- 0 0.0 4.2 50 50
- 1.52696 3 4 cbr 210 ------- 0 0.0 4.2 50 50
r 1.5278 3 4 cbr 210 ------- 0 0.0 4.2 48 48
+ 1.53 0 2 cbr 210 ------- 0 0.0 4.2 53 53
- 1.53 0 2 cbr 210 ------- 0 0.0 4.2 53 53
r 1.53084 0 2 cbr 210 ------- 0 0.0 4.2 52 52
+ 1.53084 2 3 cbr 210 ------- 0 0.0 4.2 52 52
- 1.53084 2 3 cbr 210 ------- 0 0.0 4.2 52 52
r 1.53696 2 3 cbr 210 ------- 0 0.0 4.2 51 51
+ 1.53696 3 4 cbr 210 ------- 0 0.0 4.2 51 51
- 1.53696 3 4 cbr 210 ------- 0 0.0 4.2 51 51
r 1.5378 3 4 cbr 210 ------- 0 0.0 4.2 49 49
+ 1.54 0 2 cbr 210 ------- 0 0.0 4.2 54 54
- 1.54 0 2 cbr 210 ------- 0 0.0 4.2 54 54
r 1.54084 0 2 cbr 210 ------- 0 0.0 4.2 53 53
+ 1.54084 2 3 cbr 210 ------- 0 0.0 4.2 53 53
- 1.54084 2 3 cbr 210 ------- 0 0.0 4.2 53 53
r 1.54696 2 3 cbr 210 ------- 0 0.0 4.2 52 52
+ 1.54696 3 4 cbr 210 ------- 0 0.0 4.2 52 52
- 1.54696 3 4 cbr 210 ------- 0 0.0 4.2 52 52
r 1.5478 3 4 cbr 210 ------- 0 0.0 4.2 50 50
+ 1.55 0 2 cbr 210 ------- 0 0.0 4.2 55 55
- 1.55 0 2 cbr 210 ------- 0 0.0 4.2 55 55
r 1.55084 0 2 cbr 210 ------- 0 0.0 4.2 54 54
+ 1.55084 2 3 cbr 210 ------- 0 0.0 4.2 54 54
- 1.55084 2 3 cbr 210 ------- 0 0.0 4.2 54 54
r 1.55696 2 3 cbr 210 ------- 0 0.0 4.2 53 53
+ 1.55696 3 4 cbr 210 ------- 0 0.0 4.2 53 53
- 1.55696 3 4 cbr 210 ------- 0 0.0 4.2 53 53
r 1.5578 3 4 cbr 210 ------- 0 0.0 4.2 51 51
+ 1.56 0 2 cbr 210 ------- 0 0.0 4.2 56 56
- 1.56 0 2 cbr 210 ------- 0 0.0 4.2 56 56
r 1.56084 0 2 cbr 210 ------- 0 0.0 4.2 55 55
+ 1.56084 2 3 cbr 210 ------- 0 0.0 4.2 55 55
- 1.56084 2 3 cbr 210 ------- 0 0.0 4.2 55 55
r 1.56696 2 3 cbr 210 ------- 0 0.0 4.2 54 54
+ 1.56696 3 4 cbr 210 ------- 0 0.0 4.2 54 54
- 1.56696 3 4 cbr 210 ------- 0 0.0 4.2 54 54
r 1.5678 3 4 cbr 210 ------- 0 0.0 4.2 52 52
+ 1.57 0 2 cbr 210 ------- 0 0.0 4.2 57 57
- 1.57 0 2 cbr 210 ------- 0 0.0 4.2 57 57
r 1.57084 0 2 cbr 210 ------- 0 0.0 4.2 56 56
+ 1.57084 2 3 cbr 210 ------- 0 0.0 4.2 56 56
- 1.57084 2 3 cbr 210 ------- 0 0.0 4.2 56 56
r 1.57696 2 3 cbr 210 ------- 0 0.0 4.2 55 55
+ 1.57696 3 4 cbr 210 ------- 0 0.0 4.2 55 55
- 1.57696 3 4 cbr 210 ------- 0 0.0 4.2 55 55
r 1.5778 3 4 cbr 210 ------- 0 0.0 4.2 53 53
+ 1.58 0 2 cbr 210 ------- 0 0.0 4.2 58 58
- 1.58 0 2 cbr 210 ------- 0 0.0 4.2 58 58
r 1.58084 0 2 cbr 210 ------- 0 0.0 4.2 57 57
+ 1.58084 2 3 cbr 210 ------- 0 0.0 4.2 57 57
- 1.58084 2 3 cbr 210 ------- 0 0.0 4.2 57 57
r 1.58696 2 3 cbr 210 ------- 0 0.0 4.2 56 56
+ 1.58696 3 4 cbr 210 ------- 0 0.0 4.2 56 56
- 1.58696 3 4 cbr 210 ------- 0 0.0 4.2 56 56
r 1.5878 3 4 cbr 210 ------- 0 0.0 4.2 54 54
+ 1.59 0 2 cbr 210 ------- 0 0.0 4.2 59 59
- 1.59 0 2 cbr 210 ------- 0 0.0 4.2 59 59
r 1.59084 0 2 cbr 210 ------- 0 0.0 4.2 58 58
+ 1.59084 2 3 cbr 210 ------- 0 0.0 4.2 58 58
- 1.59084 2 3 cbr 210 ------- 0 0.0 4.2 58 58
r 1.59696 2 3 cbr 210 ------- 0 0.0 4.2 57 57
+ 1.59696 3 4 cbr 210 ------- 0 0.0 4.2 57 57
- 1.59696 3 4 cbr 210 ------- 0 0.0 4.2 57 57
r 1.5978 3 4 cbr 210 ------- 0 0.0 4.2 55 55
+ 1.6 0 2 cbr 210 ------- 0 0.0 4.2 60 60
- 1.6 0 2 cbr 210 ------- 0 0.0 4.2 60 60
r 1.60084 0 2 cbr 210 ------- 0 0.0 4.2 59 59
+ 1.60084 2 3 cbr 210 ------- 0 0.0 4.2 59 59
- 1.60084 2 3 cbr 210 ------- 0 0.0 4.2 59 59
r 1.60696 2 3 cbr 210 ------- 0 0.0 4.2 58 58
+ 1.60696 3 4 cbr 210 ------- 0 0.0 4.2 58 58
- 1.60696 3 4 cbr 210 ------- 0 0.0 4.2 58 58
r 1.6078 3 4 cbr 210 ------- 0 0.0 4.2 56 56
+ 1.61 0 2 cbr 210 ------- 0 0.0 4.2 61 61
- 1.61 0 2 cbr 210 ------- 0 0.0 4.2 61 61
r 1.61084 0 2 cbr 210 ------- 0 0.0 4.2 60 60
+ 1.61084 2 3 cbr 210 ------- 0 0.0 4.2 60 60
- 1.61084 2 3 cbr 210 ------- 0 0.0 4.2 60 60
r 1.61696 2 3 cbr 210 ------- 0 0.0 4.2 59 59
+ 1.61696 3 4 cbr 210 ------- 0 0.0 4.2 59 59
- 1.61696 3 4 cbr 210 ------- 0 0.0 4.2 59 59
r 1.6178 3 4 cbr 210 ------- 0 0.0 4.2 57 57
+ 1.62 0 2 cbr 210 ------- 0 0.0 4.2 62 62
- 1.62 0 2 cbr 210 ------- 0 0.0 4.2 62 62
r 1.62084 0 2 cbr 210 ------- 0 0.0 4.2 61 61
+ 1.62084 2 3 cbr 210 ------- 0 0.0 4.2 61 61
- 1.62084 2 3 cbr 210 ------- 0 0.0 4.2 61 61
r 1.62696 2 3 cbr 210 ------- 0 0.0 4.2 60 60
+ 1.62696 3 4 cbr 210 ------- 0 0.0 4.2 60 60
- 1.62696 3 4 cbr 210 ------- 0 0.0 4.2 60 60
r 1.6278 3 4 cbr 210 ------- 0 0.0 4.2 58 58
+ 1.63 0 2 cbr 210 ------- 0 0.0 4.2 63 63
- 1.63 0 2 cbr 210 ------- 0 0.0 4.2 63 63
r 1.63084 0 2 cbr 210 ------- 0 0.0 4.2 62 62
+ 1.63084 2 3 cbr 210 ------- 0 0.0 4.2 62 62
- 1.63084 2 3 cbr 210 ------- 0 0.0 4.2 62 62
r 1.63696 2 3 cbr 210 ------- 0 0.0 4.2 61 61
+ 1.63696 3 4 cbr 210 ------- 0 0.0 4.2 61 61
- 1.63696 3 4 cbr 210 ------- 0 0.0 4.2 61 61
r 1.6378 3 4 cbr 210 ------- 0 0.0 4.2 59 59
+ 1.64 0 2 cbr 210 ------- 0 0.0 4.2 64 64
- 1.64 0 2 cbr 210 ------- 0 0.0 4.2 64 64
r 1.64084 0 2 cbr 210 ------- 0 0.0 4.2 63 63
+ 1.64084 2 3 cbr 210 ------- 0 0.0 4.2 63 63
- 1.64084 2 3 cbr 210 ------- 0 0.0 4.2 63 63
r 1.64696 2 3 cbr 210 ------- 0 0.0 4.2 62 62
+ 1.64696 3 4 cbr 210 ------- 0 0.0 4.2 62 62
- 1.64696 3 4 cbr 210 ------- 0 0.0 4.2 62 62
r 1.6478 3 4 cbr 210 ------- 0 0.0 4.2 60 60
+ 1.65 0 2 cbr 210 ------- 0 0.0 4.2 65 65
- 1.65 0 2 cbr 210 ------- 0 0.0 4.2 65 65
r 1.65084 0 2 cbr 210 ------- 0 0.0 4.2 64 64
+ 1.65084 2 3 cbr 210 ------- 0 0.0 4.2 64 64
- 1.65084 2 3 cbr 210 ------- 0 0.0 4.2 64 64
r 1.65696 2 3 cbr 210 ------- 0 0.0 4.2 63 63
+ 1.65696 3 4 cbr 210 ------- 0 0.0 4.2 63 63
- 1.65696 3 4 cbr 210 ------- 0 0.0 4.2 63 63
r 1.6578 3 4 cbr 210 ------- 0 0.0 4.2 61 61
+ 1.66 0 2 cbr 210 ------- 0 0.0 4.2 66 66
- 1.66 0 2 cbr 210 ------- 0 0.0 4.2 66 66
r 1.66084 0 2 cbr 210 ------- 0 0.0 4.2 65 65
+ 1.66084 2 3 cbr 210 ------- 0 0.0 4.2 65 65
- 1.66084 2 3 cbr 210 ------- 0 0.0 4.2 65 65
r 1.66696 2 3 cbr 210 ------- 0 0.0 4.2 64 64
+ 1.66696 3 4 cbr 210 ------- 0 0.0 4.2 64 64
- 1.66696 3 4 cbr 210 ------- 0 0.0 4.2 64 64
r 1.6678 3 4 cbr 210 ------- 0 0.0 4.2 62 62
+ 1.67 0 2 cbr 210 ------- 0 0.0 4.2 67 67
- 1.67 0 2 cbr 210 ------- 0 0.0 4.2 67 67
r 1.67084 0 2 cbr 210 ------- 0 0.0 4.2 66 66
+ 1.67084 2 3 cbr 210 ------- 0 0.0 4.2 66 66
- 1.67084 2 3 cbr 210 ------- 0 0.0 4.2 66 66
r 1.67696 2 3 cbr 210 ------- 0 0.0 4.2 65 65
+ 1.67696 3 4 cbr 210 ------- 0 0.0 4.2 65 65
- 1.67696 3 4 cbr 210 ------- 0 0.0 4.2 65 65
r 1.6778 3 4 cbr 210 ------- 0 0.0 4.2 63 63
+ 1.68 0 2 cbr 210 ------- 0 0.0 4.2 68 68
- 1.68 0 2 cbr 210 ------- 0 0.0 4.2 68 68
r 1.68084 0 2 cbr 210 ------- 0 0.0 4.2 67 67
+ 1.68084 2 3 cbr 210 ------- 0 0.0 4.2 67 67
- 1.68084 2 3 cbr 210 ------- 0 0.0 4.2 67 67
r 1.68696 2 3 cbr 210 ------- 0 0.0 4.2 66 66
+ 1.68696 3 4 cbr 210 ------- 0 0.0 4.2 66 66
- 1.68696 3 4 cbr 210 ------- 0 0.0 4.2 66 66
r 1.6878 3 4 cbr 210 ------- 0 0.0 4.2 64 64
+ 1.69 0 2 cbr 210 ------- 0 0.0 4.2 69 69
- 1.69 0 2 cbr 210 ------- 0 0.0 4.2 69 69
r 1.69084 0 2 cbr 210 ------- 0 0.0 4.2 68 68
+ 1.69084 2 3 cbr 210 ------- 0 0.0 4.2 68 68
- 1.69084 2 3 cbr 210 ------- 0 0.0 4.2 68 68
r 1.69696 2 3 cbr 210 ------- 0 0.0 4.2 67 67
+ 1.69696 3 4 cbr 210 ------- 0 0.0 4.2 67 67
- 1.69696 3 4 cbr 210 ------- 0 0.0 4.2 67 67
r 1.6978 3 4 cbr 210 ------- 0 0.0 4.2 65 65
+ 1.7 0 2 cbr 210 ------- 0 0.0 4.2 70 70
- 1.7 0 2 cbr 210 ------- 0 0.0 4.2 70 70
r 1.70084 0 2 cbr 210 ------- 0 0.0 4.2 69 69
+ 1.70084 2 3 cbr 210 ------- 0 0.0 4.2 69 69
- 1.70084 2 3 cbr 210 ------- 0 0.0 4.2 69 69
r 1.70696 2 3 cbr 210 ------- 0 0.0 4.2 68 68
+ 1.70696 3 4 cbr 210 ------- 0 0.0 4.2 68 68
- 1.70696 3 4 cbr 210 ------- 0 0.0 4.2 68 68
r 1.7078 3 4 cbr 210 ------- 0 0.0 4.2 66 66
+ 1.71 0 2 cbr 210 ------- 0 0.0 4.2 71 71
- 1.71 0 2 cbr 210 ------- 0 0.0 4.2 71 71
r 1.71084 0 2 cbr 210 ------- 0 0.0 4.2 70 70
+ 1.71084 2 3 cbr 210 ------- 0 0.0 4.2 70 70
- 1.71084 2 3 cbr 210 ------- 0 0.0 4.2 70 70
r 1.71696 2 3 cbr 210 ------- 0 0.0 4.2 69 69
+ 1.71696 3 4 cbr 210 ------- 0 0.0 4.2 69 69
- 1.71696 3 4 cbr 210 ------- 0 0.0 4.2 69 69
r 1.7178 3 4 cbr 210 ------- 0 0.0 4.2 67 67
+ 1.72 0 2 cbr 210 ------- 0 0.0 4.2 72 72
- 1.72 0 2 cbr 210 ------- 0 0.0 4.2 72 72
r 1.72084 0 2 cbr 210 ------- 0 0.0 4.2 71 71
+ 1.72084 2 3 cbr 210 ------- 0 0.0 4.2 71 71
- 1.72084 2 3 cbr 210 ------- 0 0.0 4.2 71 71
r 1.72696 2 3 cbr 210 ------- 0 0.0 4.2 70 70
+ 1.72696 3 4 cbr 210 ------- 0 0.0 4.2 70 70
- 1.72696 3 4 cbr 210 ------- 0 0.0 4.2 70 70
r 1.7278 3 4 cbr 210 ------- 0 0.0 4.2 68 68
+ 1.73 0 2 cbr 210 ------- 0 0.0 4.2 73 73
- 1.73 0 2 cbr 210 ------- 0 0.0 4.2 73 73
r 1.73084 0 2 cbr 210 ------- 0 0.0 4.2 72 72
+ 1.73084 2 3 cbr 210 ------- 0 0.0 4.2 72 72
- 1.73084 2 3 cbr 210 ------- 0 0.0 4.2 72 72
r 1.73696 2 3 cbr 210 ------- 0 0.0 4.2 71 71
+ 1.73696 3 4 cbr 210 ------- 0 0.0 4.2 71 71
- 1.73696 3 4 cbr 210 ------- 0 0.0 4.2 71 71
r 1.7378 3 4 cbr 210 ------- 0 0.0 4.2 69 69
+ 1.74 0 2 cbr 210 ------- 0 0.0 4.2 74 74
- 1.74 0 2 cbr 210 ------- 0 0.0 4.2 74 74
r 1.74084 0 2 cbr 210 ------- 0 0.0 4.2 73 73
+ 1.74084 2 3 cbr 210 ------- 0 0.0 4.2 73 73
- 1.74084 2 3 cbr 210 ------- 0 0.0 4.2 73 73
r 1.74696 2 3 cbr 210 ------- 0 0.0 4.2 72 72
+ 1.74696 3 4 cbr 210 ------- 0 0.0 4.2 72 72
- 1.74696 3 4 cbr 210 ------- 0 0.0 4.2 72 72
r 1.7478 3 4 cbr 210 ------- 0 0.0 4.2 70 70
+ 1.75 0 2 cbr 210 ------- 0 0.0 4.2 75 75
- 1.75 0 2 cbr 210 ------- 0 0.0 4.2 75 75
r 1.75084 0 2 cbr 210 ------- 0 0.0 4.2 74 74
+ 1.75084 2 3 cbr 210 ------- 0 0.0 4.2 74 74
- 1.75084 2 3 cbr 210 ------- 0 0.0 4.2 74 74