+ 1 0 2 cbr 210 ------- 0 0.0 3.0 0 0
- 1 0 2 cbr 210 ------- 0 0.0 3.0 0 0
+ 1.01 0 2 cbr 210 ------- 0 0.0 3.0 1 1
- 1.01 0 2 cbr 210 ------- 0 0.0 3.0 1 1
r 1.01556 0 2 cbr 210 ------- 0 0.0 3.0 0 0
+ 1.01556 2 3 cbr 210 ------- 0 0.0 3.0 0 0
- 1.01556 2 3 cbr 210 ------- 0 0.0 3.0 0 0
+ 1.02 0 2 cbr 210 ------- 0 0.0 3.0 2 2
- 1.02 0 2 cbr 210 ------- 0 0.0 3.0 2 2
r 1.02556 0 2 cbr 210 ------- 0 0.0 3.0 1 1
+ 1.02556 2 3 cbr 210 ------- 0 0.0 3.0 1 1
- 1.02556 2 3 cbr 210 ------- 0 0.0 3.0 1 1
+ 1.03 0 2 cbr 210 ------- 0 0.0 3.0 3 3
- 1.03 0 2 cbr 210 ------- 0 0.0 3.0 3 3
r 1.03556 0 2 cbr 210 ------- 0 0.0 3.0 2 2
+ 1.03556 2 3 cbr 210 ------- 0 0.0 3.0 2 2
- 1.03556 2 3 cbr 210 ------- 0 0.0 3.0 2 2
r 1.0364 2 3 cbr 210 ------- 0 0.0 3.0 0 0
+ 1.04 0 2 cbr 210 ------- 0 0.0 3.0 4 4
- 1.04 0 2 cbr 210 ------- 0 0.0 3.0 4 4
r 1.04556 0 2 cbr 210 ------- 0 0.0 3.0 3 3
+ 1.04556 2 3 cbr 210 ------- 0 0.0 3.0 3 3
- 1.04556 2 3 cbr 210 ------- 0 0.0 3.0 3 3
r 1.0464 2 3 cbr 210 ------- 0 0.0 3.0 1 1
+ 1.05 0 2 cbr 210 ------- 0 0.0 3.0 5 5
- 1.05 0 2 cbr 210 ------- 0 0.0 3.0 5 5
r 1.05556 0 2 cbr 210 ------- 0 0.0 3.0 4 4
+ 1.05556 2 3 cbr 210 ------- 0 0.0 3.0 4 4
- 1.05556 2 3 cbr 210 ------- 0 0.0 3.0 4 4
r 1.0564 2 3 cbr 210 ------- 0 0.0 3.0 2 2
+ 1.06 0 2 cbr 210 ------- 0 0.0 3.0 6 6
- 1.06 0 2 cbr 210 ------- 0 0.0 3.0 6 6
r 1.06556 0 2 cbr 210 ------- 0 0.0 3.0 5 5
+ 1.06556 2 3 cbr 210 ------- 0 0.0 3.0 5 5
- 1.06556 2 3 cbr 210 ------- 0 0.0 3.0 5 5
r 1.0664 2 3 cbr 210 ------- 0 0.0 3.0 3 3
+ 1.07 0 2 cbr 210 ------- 0 0.0 3.0 7 7
- 1.07 0 2 cbr 210 ------- 0 0.0 3.0 7 7
r 1.07556 0 2 cbr 210 ------- 0 0.0 3.0 6 6
+ 1.07556 2 3 cbr 210 ------- 0 0.0 3.0 6 6
- 1.07556 2 3 cbr 210 ------- 0 0.0 3.0 6 6
r 1.0764 2 3 cbr 210 ------- 0 0.0 3.0 4 4
+ 1.08 0 2 cbr 210 ------- 0 0.0 3.0 8 8
- 1.08 0 2 cbr 210 ------- 0 0.0 3.0 8 8
r 1.08556 0 2 cbr 210 ------- 0 0.0 3.0 7 7
+ 1.08556 2 3 cbr 210 ------- 0 0.0 3.0 7 7
- 1.08556 2 3 cbr 210 ------- 0 0.0 3.0 7 7
r 1.0864 2 3 cbr 210 ------- 0 0.0 3.0 5 5
+ 1.09 0 2 cbr 210 ------- 0 0.0 3.0 9 9
- 1.09 0 2 cbr 210 ------- 0 0.0 3.0 9 9
r 1.09556 0 2 cbr 210 ------- 0 0.0 3.0 8 8
+ 1.09556 2 3 cbr 210 ------- 0 0.0 3.0 8 8
- 1.09556 2 3 cbr 210 ------- 0 0.0 3.0 8 8
r 1.0964 2 3 cbr 210 ------- 0 0.0 3.0 6 6
+ 1.1 0 2 cbr 210 ------- 0 0.0 3.0 10 10
- 1.1 0 2 cbr 210 ------- 0 0.0 3.0 10 10
r 1.10556 0 2 cbr 210 ------- 0 0.0 3.0 9 9
+ 1.10556 2 3 cbr 210 ------- 0 0.0 3.0 9 9
- 1.10556 2 3 cbr 210 ------- 0 0.0 3.0 9 9
r 1.1064 2 3 cbr 210 ------- 0 0.0 3.0 7 7
+ 1.11 0 2 cbr 210 ------- 0 0.0 3.0 11 11
- 1.11 0 2 cbr 210 ------- 0 0.0 3.0 11 11
r 1.11556 0 2 cbr 210 ------- 0 0.0 3.0 10 10
+ 1.11556 2 3 cbr 210 ------- 0 0.0 3.0 10 10
- 1.11556 2 3 cbr 210 ------- 0 0.0 3.0 10 10
r 1.1164 2 3 cbr 210 ------- 0 0.0 3.0 8 8
+ 1.12 0 2 cbr 210 ------- 0 0.0 3.0 12 12
- 1.12 0 2 cbr 210 ------- 0 0.0 3.0 12 12
r 1.12556 0 2 cbr 210 ------- 0 0.0 3.0 11 11
+ 1.12556 2 3 cbr 210 ------- 0 0.0 3.0 11 11
- 1.12556 2 3 cbr 210 ------- 0 0.0 3.0 11 11
r 1.1264 2 3 cbr 210 ------- 0 0.0 3.0 9 9
+ 1.13 0 2 cbr 210 ------- 0 0.0 3.0 13 13
- 1.13 0 2 cbr 210 ------- 0 0.0 3.0 13 13
r 1.13556 0 2 cbr 210 ------- 0 0.0 3.0 12 12
+ 1.13556 2 3 cbr 210 ------- 0 0.0 3.0 12 12
- 1.13556 2 3 cbr 210 ------- 0 0.0 3.0 12 12
r 1.1364 2 3 cbr 210 ------- 0 0.0 3.0 10 10
+ 1.14 0 2 cbr 210 ------- 0 0.0 3.0 14 14
- 1.14 0 2 cbr 210 ------- 0 0.0 3.0 14 14
r 1.14556 0 2 cbr 210 ------- 0 0.0 3.0 13 13
+ 1.14556 2 3 cbr 210 ------- 0 0.0 3.0 13 13
- 1.14556 2 3 cbr 210 ------- 0 0.0 3.0 13 13
r 1.1464 2 3 cbr 210 ------- 0 0.0 3.0 11 11
+ 1.15 0 2 cbr 210 ------- 0 0.0 3.0 15 15
- 1.15 0 2 cbr 210 ------- 0 0.0 3.0 15 15
r 1.15556 0 2 cbr 210 ------- 0 0.0 3.0 14 14
+ 1.15556 2 3 cbr 210 ------- 0 0.0 3.0 14 14
- 1.15556 2 3 cbr 210 ------- 0 0.0 3.0 14 14
r 1.1564 2 3 cbr 210 ------- 0 0.0 3.0 12 12
+ 1.16 0 2 cbr 210 ------- 0 0.0 3.0 16 16
- 1.16 0 2 cbr 210 ------- 0 0.0 3.0 16 16
r 1.16556 0 2 cbr 210 ------- 0 0.0 3.0 15 15
+ 1.16556 2 3 cbr 210 ------- 0 0.0 3.0 15 15
- 1.16556 2 3 cbr 210 ------- 0 0.0 3.0 15 15
r 1.1664 2 3 cbr 210 ------- 0 0.0 3.0 13 13
+ 1.17 0 2 cbr 210 ------- 0 0.0 3.0 17 17
- 1.17 0 2 cbr 210 ------- 0 0.0 3.0 17 17
r 1.17556 0 2 cbr 210 ------- 0 0.0 3.0 16 16
+ 1.17556 2 3 cbr 210 ------- 0 0.0 3.0 16 16
- 1.17556 2 3 cbr 210 ------- 0 0.0 3.0 16 16
r 1.1764 2 3 cbr 210 ------- 0 0.0 3.0 14 14
+ 1.18 0 2 cbr 210 ------- 0 0.0 3.0 18 18
- 1.18 0 2 cbr 210 ------- 0 0.0 3.0 18 18
r 1.18556 0 2 cbr 210 ------- 0 0.0 3.0 17 17
+ 1.18556 2 3 cbr 210 ------- 0 0.0 3.0 17 17
- 1.18556 2 3 cbr 210 ------- 0 0.0 3.0 17 17
r 1.1864 2 3 cbr 210 ------- 0 0.0 3.0 15 15
+ 1.19 0 2 cbr 210 ------- 0 0.0 3.0 19 19
- 1.19 0 2 cbr 210 ------- 0 0.0 3.0 19 19
r 1.19556 0 2 cbr 210 ------- 0 0.0 3.0 18 18
+ 1.19556 2 3 cbr 210 ------- 0 0.0 3.0 18 18
- 1.19556 2 3 cbr 210 ------- 0 0.0 3.0 18 18
r 1.1964 2 3 cbr 210 ------- 0 0.0 3.0 16 16
+ 1.2 0 2 cbr 210 ------- 0 0.0 3.0 20 20
- 1.2 0 2 cbr 210 ------- 0 0.0 3.0 20 20
r 1.20556 0 2 cbr 210 ------- 0 0.0 3.0 19 19
+ 1.20556 2 3 cbr 210 ------- 0 0.0 3.0 19 19
- 1.20556 2 3 cbr 210 ------- 0 0.0 3.0 19 19
r 1.2064 2 3 cbr 210 ------- 0 0.0 3.0 17 17
+ 1.21 0 2 cbr 210 ------- 0 0.0 3.0 21 21
- 1.21 0 2 cbr 210 ------- 0 0.0 3.0 21 21
r 1.21556 0 2 cbr 210 ------- 0 0.0 3.0 20 20
+ 1.21556 2 3 cbr 210 ------- 0 0.0 3.0 20 20
- 1.21556 2 3 cbr 210 ------- 0 0.0 3.0 20 20
r 1.2164 2 3 cbr 210 ------- 0 0.0 3.0 18 18
+ 1.22 0 2 cbr 210 ------- 0 0.0 3.0 22 22
- 1.22 0 2 cbr 210 ------- 0 0.0 3.0 22 22
r 1.22556 0 2 cbr 210 ------- 0 0.0 3.0 21 21
+ 1.22556 2 3 cbr 210 ------- 0 0.0 3.0 21 21
- 1.22556 2 3 cbr 210 ------- 0 0.0 3.0 21 21
r 1.2264 2 3 cbr 210 ------- 0 0.0 3.0 19 19
+ 1.23 0 2 cbr 210 ------- 0 0.0 3.0 23 23
- 1.23 0 2 cbr 210 ------- 0 0.0 3.0 23 23
r 1.23556 0 2 cbr 210 ------- 0 0.0 3.0 22 22
+ 1.23556 2 3 cbr 210 ------- 0 0.0 3.0 22 22
- 1.23556 2 3 cbr 210 ------- 0 0.0 3.0 22 22
r 1.2364 2 3 cbr 210 ------- 0 0.0 3.0 20 20
+ 1.24 0 2 cbr 210 ------- 0 0.0 3.0 24 24
- 1.24 0 2 cbr 210 ------- 0 0.0 3.0 24 24
r 1.24556 0 2 cbr 210 ------- 0 0.0 3.0 23 23
+ 1.24556 2 3 cbr 210 ------- 0 0.0 3.0 23 23
- 1.24556 2 3 cbr 210 ------- 0 0.0 3.0 23 23
r 1.2464 2 3 cbr 210 ------- 0 0.0 3.0 21 21
+ 1.25 0 2 cbr 210 ------- 0 0.0 3.0 25 25
- 1.25 0 2 cbr 210 ------- 0 0.0 3.0 25 25
r 1.25556 0 2 cbr 210 ------- 0 0.0 3.0 24 24
+ 1.25556 2 3 cbr 210 ------- 0 0.0 3.0 24 24
- 1.25556 2 3 cbr 210 ------- 0 0.0 3.0 24 24
r 1.2564 2 3 cbr 210 ------- 0 0.0 3.0 22 22
+ 1.26 0 2 cbr 210 ------- 0 0.0 3.0 26 26
- 1.26 0 2 cbr 210 ------- 0 0.0 3.0 26 26
r 1.26556 0 2 cbr 210 ------- 0 0.0 3.0 25 25
+ 1.26556 2 3 cbr 210 ------- 0 0.0 3.0 25 25
- 1.26556 2 3 cbr 210 ------- 0 0.0 3.0 25 25
r 1.2664 2 3 cbr 210 ------- 0 0.0 3.0 23 23
+ 1.27 0 2 cbr 210 ------- 0 0.0 3.0 27 27
- 1.27 0 2 cbr 210 ------- 0 0.0 3.0 27 27
r 1.27556 0 2 cbr 210 ------- 0 0.0 3.0 26 26
+ 1.27556 2 3 cbr 210 ------- 0 0.0 3.0 26 26
- 1.27556 2 3 cbr 210 ------- 0 0.0 3.0 26 26
r 1.2764 2 3 cbr 210 ------- 0 0.0 3.0 24 24
+ 1.28 0 2 cbr 210 ------- 0 0.0 3.0 28 28
- 1.28 0 2 cbr 210 ------- 0 0.0 3.0 28 28
r 1.28556 0 2 cbr 210 ------- 0 0.0 3.0 27 27
+ 1.28556 2 3 cbr 210 ------- 0 0.0 3.0 27 27
- 1.28556 2 3 cbr 210 ------- 0 0.0 3.0 27 27
r 1.2864 2 3 cbr 210 ------- 0 0.0 3.0 25 25
+ 1.29 0 2 cbr 210 ------- 0 0.0 3.0 29 29
- 1.29 0 2 cbr 210 ------- 0 0.0 3.0 29 29
r 1.29556 0 2 cbr 210 ------- 0 0.0 3.0 28 28
+ 1.29556 2 3 cbr 210 ------- 0 0.0 3.0 28 28
- 1.29556 2 3 cbr 210 ------- 0 0.0 3.0 28 28
r 1.2964 2 3 cbr 210 ------- 0 0.0 3.0 26 26
+ 1.3 0 2 cbr 210 ------- 0 0.0 3.0 30 30
- 1.3 0 2 cbr 210 ------- 0 0.0 3.0 30 30
r 1.30556 0 2 cbr 210 ------- 0 0.0 3.0 29 29
+ 1.30556 2 3 cbr 210 ------- 0 0.0 3.0 29 29
- 1.30556 2 3 cbr 210 ------- 0 0.0 3.0 29 29
r 1.3064 2 3 cbr 210 ------- 0 0.0 3.0 27 27
+ 1.31 0 2 cbr 210 ------- 0 0.0 3.0 31 31
- 1.31 0 2 cbr 210 ------- 0 0.0 3.0 31 31
r 1.31556 0 2 cbr 210 ------- 0 0.0 3.0 30 30
+ 1.31556 2 3 cbr 210 ------- 0 0.0 3.0 30 30
- 1.31556 2 3 cbr 210 ------- 0 0.0 3.0 30 30
r 1.3164 2 3 cbr 210 ------- 0 0.0 3.0 28 28
+ 1.32 0 2 cbr 210 ------- 0 0.0 3.0 32 32
- 1.32 0 2 cbr 210 ------- 0 0.0 3.0 32 32
r 1.32556 0 2 cbr 210 ------- 0 0.0 3.0 31 31
+ 1.32556 2 3 cbr 210 ------- 0 0.0 3.0 31 31
- 1.32556 2 3 cbr 210 ------- 0 0.0 3.0 31 31
r 1.3264 2 3 cbr 210 ------- 0 0.0 3.0 29 29
+ 1.33 0 2 cbr 210 ------- 0 0.0 3.0 33 33
- 1.33 0 2 cbr 210 ------- 0 0.0 3.0 33 33
r 1.33556 0 2 cbr 210 ------- 0 0.0 3.0 32 32
+ 1.33556 2 3 cbr 210 ------- 0 0.0 3.0 32 32
- 1.33556 2 3 cbr 210 ------- 0 0.0 3.0 32 32
r 1.3364 2 3 cbr 210 ------- 0 0.0 3.0 30 30
+ 1.34 0 2 cbr 210 ------- 0 0.0 3.0 34 34
- 1.34 0 2 cbr 210 ------- 0 0.0 3.0 34 34
r 1.34556 0 2 cbr 210 ------- 0 0.0 3.0 33 33
+ 1.34556 2 3 cbr 210 ------- 0 0.0 3.0 33 33
- 1.34556 2 3 cbr 210 ------- 0 0.0 3.0 33 33
r 1.3464 2 3 cbr 210 ------- 0 0.0 3.0 31 31
+ 1.35 0 2 cbr 210 ------- 0 0.0 3.0 35 35
- 1.35 0 2 cbr 210 ------- 0 0.0 3.0 35 35
r 1.35556 0 2 cbr 210 ------- 0 0.0 3.0 34 34
+ 1.35556 2 3 cbr 210 ------- 0 0.0 3.0 34 34
- 1.35556 2 3 cbr 210 ------- 0 0.0 3.0 34 34
r 1.3564 2 3 cbr 210 ------- 0 0.0 3.0 32 32
+ 1.36 0 2 cbr 210 ------- 0 0.0 3.0 36 36
- 1.36 0 2 cbr 210 ------- 0 0.0 3.0 36 36
r 1.36556 0 2 cbr 210 ------- 0 0.0 3.0 35 35
+ 1.36556 2 3 cbr 210 ------- 0 0.0 3.0 35 35
- 1.36556 2 3 cbr 210 ------- 0 0.0 3.0 35 35
r 1.3664 2 3 cbr 210 ------- 0 0.0 3.0 33 33
+ 1.37 0 2 cbr 210 ------- 0 0.0 3.0 37 37
- 1.37 0 2 cbr 210 ------- 0 0.0 3.0 37 37
r 1.37556 0 2 cbr 210 ------- 0 0.0 3.0 36 36
+ 1.37556 2 3 cbr 210 ------- 0 0.0 3.0 36 36
- 1.37556 2 3 cbr 210 ------- 0 0.0 3.0 36 36
r 1.3764 2 3 cbr 210 ------- 0 0.0 3.0 34 34
+ 1.38 0 2 cbr 210 ------- 0 0.0 3.0 38 38
- 1.38 0 2 cbr 210 ------- 0 0.0 3.0 38 38
r 1.38556 0 2 cbr 210 ------- 0 0.0 3.0 37 37
+ 1.38556 2 3 cbr 210 ------- 0 0.0 3.0 37 37
- 1.38556 2 3 cbr 210 ------- 0 0.0 3.0 37 37
r 1.3864 2 3 cbr 210 ------- 0 0.0 3.0 35 35
+ 1.39 0 2 cbr 210 ------- 0 0.0 3.0 39 39
- 1.39 0 2 cbr 210 ------- 0 0.0 3.0 39 39
r 1.39556 0 2 cbr 210 ------- 0 0.0 3.0 38 38
+ 1.39556 2 3 cbr 210 ------- 0 0.0 3.0 38 38
- 1.39556 2 3 cbr 210 ------- 0 0.0 3.0 38 38
r 1.3964 2 3 cbr 210 ------- 0 0.0 3.0 36 36
+ 1.4 0 2 cbr 210 ------- 0 0.0 3.0 40 40
- 1.4 0 2 cbr 210 ------- 0 0.0 3.0 40 40
r 1.40556 0 2 cbr 210 ------- 0 0.0 3.0 39 39
+ 1.40556 2 3 cbr 210 ------- 0 0.0 3.0 39 39
- 1.40556 2 3 cbr 210 ------- 0 0.0 3.0 39 39
r 1.4064 2 3 cbr 210 ------- 0 0.0 3.0 37 37
+ 1.41 0 2 cbr 210 ------- 0 0.0 3.0 41 41
- 1.41 0 2 cbr 210 ------- 0 0.0 3.0 41 41
r 1.41556 0 2 cbr 210 ------- 0 0.0 3.0 40 40
+ 1.41556 2 3 cbr 210 ------- 0 0.0 3.0 40 40
- 1.41556 2 3 cbr 210 ------- 0 0.0 3.0 40 40
r 1.4164 2 3 cbr 210 ------- 0 0.0 3.0 38 38
+ 1.42 0 2 cbr 210 ------- 0 0.0 3.0 42 42
- 1.42 0 2 cbr 210 ------- 0 0.0 3.0 42 42
r 1.42556 0 2 cbr 210 ------- 0 0.0 3.0 41 41
+ 1.42556 2 3 cbr 210 ------- 0 0.0 3.0 41 41
- 1.42556 2 3 cbr 210 ------- 0 0.0 3.0 41 41
r 1.4264 2 3 cbr 210 ------- 0 0.0 3.0 39 39
+ 1.43 0 2 cbr 210 ------- 0 0.0 3.0 43 43
- 1.43 0 2 cbr 210 ------- 0 0.0 3.0 43 43
r 1.43556 0 2 cbr 210 ------- 0 0.0 3.0 42 42
+ 1.43556 2 3 cbr 210 ------- 0 0.0 3.0 42 42
- 1.43556 2 3 cbr 210 ------- 0 0.0 3.0 42 42
r 1.4364 2 3 cbr 210 ------- 0 0.0 3.0 40 40
+ 1.44 0 2 cbr 210 ------- 0 0.0 3.0 44 44
- 1.44 0 2 cbr 210 ------- 0 0.0 3.0 44 44
r 1.44556 0 2 cbr 210 ------- 0 0.0 3.0 43 43
+ 1.44556 2 3 cbr 210 ------- 0 0.0 3.0 43 43
- 1.44556 2 3 cbr 210 ------- 0 0.0 3.0 43 43
r 1.4464 2 3 cbr 210 ------- 0 0.0 3.0 41 41
+ 1.45 0 2 cbr 210 ------- 0 0.0 3.0 45 45
- 1.45 0 2 cbr 210 ------- 0 0.0 3.0 45 45
r 1.45556 0 2 cbr 210 ------- 0 0.0 3.0 44 44
+ 1.45556 2 3 cbr 210 ------- 0 0.0 3.0 44 44
- 1.45556 2 3 cbr 210 ------- 0 0.0 3.0 44 44
r 1.4564 2 3 cbr 210 ------- 0 0.0 3.0 42 42
+ 1.46 0 2 cbr 210 ------- 0 0.0 3.0 46 46
- 1.46 0 2 cbr 210 ------- 0 0.0 3.0 46 46
r 1.46556 0 2 cbr 210 ------- 0 0.0 3.0 45 45
+ 1.46556 2 3 cbr 210 ------- 0 0.0 3.0 45 45
- 1.46556 2 3 cbr 210 ------- 0 0.0 3.0 45 45
r 1.4664 2 3 cbr 210 ------- 0 0.0 3.0 43 43
+ 1.47 0 2 cbr 210 ------- 0 0.0 3.0 47 47
- 1.47 0 2 cbr 210 ------- 0 0.0 3.0 47 47
r 1.47556 0 2 cbr 210 ------- 0 0.0 3.0 46 46
+ 1.47556 2 3 cbr 210 ------- 0 0.0 3.0 46 46
- 1.47556 2 3 cbr 210 ------- 0 0.0 3.0 46 46
r 1.4764 2 3 cbr 210 ------- 0 0.0 3.0 44 44
+ 1.48 0 2 cbr 210 ------- 0 0.0 3.0 48 48
- 1.48 0 2 cbr 210 ------- 0 0.0 3.0 48 48
r 1.48556 0 2 cbr 210 ------- 0 0.0 3.0 47 47
+ 1.48556 2 3 cbr 210 ------- 0 0.0 3.0 47 47
- 1.48556 2 3 cbr 210 ------- 0 0.0 3.0 47 47
r 1.4864 2 3 cbr 210 ------- 0 0.0 3.0 45 45
+ 1.49 0 2 cbr 210 ------- 0 0.0 3.0 49 49
- 1.49 0 2 cbr 210 ------- 0 0.0 3.0 49 49
r 1.49556 0 2 cbr 210 ------- 0 0.0 3.0 48 48
+ 1.49556 2 3 cbr 210 ------- 0 0.0 3.0 48 48
- 1.49556 2 3 cbr 210 ------- 0 0.0 3.0 48 48
r 1.4964 2 3 cbr 210 ------- 0 0.0 3.0 46 46
+ 1.5 0 2 cbr 210 ------- 0 0.0 3.0 50 50
- 1.5 0 2 cbr 210 ------- 0 0.0 3.0 50 50
r 1.50556 0 2 cbr 210 ------- 0 0.0 3.0 49 49
+ 1.50556 2 3 cbr 210 ------- 0 0.0 3.0 49 49
- 1.50556 2 3 cbr 210 ------- 0 0.0 3.0 49 49
r 1.5064 2 3 cbr 210 ------- 0 0.0 3.0 47 47
+ 1.51 0 2 cbr 210 ------- 0 0.0 3.0 51 51
- 1.51 0 2 cbr 210 ------- 0 0.0 3.0 51 51
r 1.51556 0 2 cbr 210 ------- 0 0.0 3.0 50 50
+ 1.51556 2 3 cbr 210 ------- 0 0.0 3.0 50 50
- 1.51556 2 3 cbr 210 ------- 0 0.0 3.0 50 50
r 1.5164 2 3 cbr 210 ------- 0 0.0 3.0 48 48
+ 1.52 0 2 cbr 210 ------- 0 0.0 3.0 52 52
- 1.52 0 2 cbr 210 ------- 0 0.0 3.0 52 52
r 1.52556 0 2 cbr 210 ------- 0 0.0 3.0 51 51
+ 1.52556 2 3 cbr 210 ------- 0 0.0 3.0 51 51
- 1.52556 2 3 cbr 210 ------- 0 0.0 3.0 51 51
r 1.5264 2 3 cbr 210 ------- 0 0.0 3.0 49 49
+ 1.53 0 2 cbr 210 ------- 0 0.0 3.0 53 53
- 1.53 0 2 cbr 210 ------- 0 0.0 3.0 53 53
r 1.53556 0 2 cbr 210 ------- 0 0.0 3.0 52 52
+ 1.53556 2 3 cbr 210 ------- 0 0.0 3.0 52 52
- 1.53556 2 3 cbr 210 ------- 0 0.0 3.0 52 52
r 1.5364 2 3 cbr 210 ------- 0 0.0 3.0 50 50
+ 1.54 0 2 cbr 210 ------- 0 0.0 3.0 54 54
- 1.54 0 2 cbr 210 ------- 0 0.0 3.0 54 54
r 1.54556 0 2 cbr 210 ------- 0 0.0 3.0 53 53
+ 1.54556 2 3 cbr 210 ------- 0 0.0 3.0 53 53
- 1.54556 2 3 cbr 210 ------- 0 0.0 3.0 53 53
r 1.5464 2 3 cbr 210 ------- 0 0.0 3.0 51 51
+ 1.55 0 2 cbr 210 ------- 0 0.0 3.0 55 55
- 1.55 0 2 cbr 210 ------- 0 0.0 3.0 55 55
r 1.55556 0 2 cbr 210 ------- 0 0.0 3.0 54 54
+ 1.55556 2 3 cbr 210 ------- 0 0.0 3.0 54 54
- 1.55556 2 3 cbr 210 ------- 0 0.0 3.0 54 54
r 1.5564 2 3 cbr 210 ------- 0 0.0 3.0 52 52
+ 1.56 0 2 cbr 210 ------- 0 0.0 3.0 56 56
- 1.56 0 2 cbr 210 ------- 0 0.0 3.0 56 56
r 1.56556 0 2 cbr 210 ------- 0 0.0 3.0 55 55
+ 1.56556 2 3 cbr 210 ------- 0 0.0 3.0 55 55
- 1.56556 2 3 cbr 210 ------- 0 0.0 3.0 55 55
r 1.5664 2 3 cbr 210 ------- 0 0.0 3.0 53 53
+ 1.57 0 2 cbr 210 ------- 0 0.0 3.0 57 57
- 1.57 0 2 cbr 210 ------- 0 0.0 3.0 57 57
r 1.57556 0 2 cbr 210 ------- 0 0.0 3.0 56 56
+ 1.57556 2 3 cbr 210 ------- 0 0.0 3.0 56 56
- 1.57556 2 3 cbr 210 ------- 0 0.0 3.0 56 56
r 1.5764 2 3 cbr 210 ------- 0 0.0 3.0 54 54
+ 1.58 0 2 cbr 210 ------- 0 0.0 3.0 58 58
- 1.58 0 2 cbr 210 ------- 0 0.0 3.0 58 58
r 1.58556 0 2 cbr 210 ------- 0 0.0 3.0 57 57
+ 1.58556 2 3 cbr 210 ------- 0 0.0 3.0 57 57
- 1.58556 2 3 cbr 210 ------- 0 0.0 3.0 57 57
r 1.5864 2 3 cbr 210 ------- 0 0.0 3.0 55 55
+ 1.59 0 2 cbr 210 ------- 0 0.0 3.0 59 59
- 1.59 0 2 cbr 210 ------- 0 0.0 3.0 59 59
r 1.59556 0 2 cbr 210 ------- 0 0.0 3.0 58 58
+ 1.59556 2 3 cbr 210 ------- 0 0.0 3.0 58 58
- 1.59556 2 3 cbr 210 ------- 0 0.0 3.0 58 58
r 1.5964 2 3 cbr 210 ------- 0 0.0 3.0 56 56
+ 1.6 0 2 cbr 210 ------- 0 0.0 3.0 60 60
- 1.6 0 2 cbr 210 ------- 0 0.0 3.0 60 60
r 1.60556 0 2 cbr 210 ------- 0 0.0 3.0 59 59
+ 1.60556 2 3 cbr 210 ------- 0 0.0 3.0 59 59
- 1.60556 2 3 cbr 210 ------- 0 0.0 3.0 59 59
r 1.6064 2 3 cbr 210 ------- 0 0.0 3.0 57 57
+ 1.61 0 2 cbr 210 ------- 0 0.0 3.0 61 61
- 1.61 0 2 cbr 210 ------- 0 0.0 3.0 61 61
r 1.61556 0 2 cbr 210 ------- 0 0.0 3.0 60 60
+ 1.61556 2 3 cbr 210 ------- 0 0.0 3.0 60 60
- 1.61556 2 3 cbr 210 ------- 0 0.0 3.0 60 60
r 1.6164 2 3 cbr 210 ------- 0 0.0 3.0 58 58
+ 1.62 0 2 cbr 210 ------- 0 0.0 3.0 62 62
- 1.62 0 2 cbr 210 ------- 0 0.0 3.0 62 62
r 1.62556 0 2 cbr 210 ------- 0 0.0 3.0 61 61
+ 1.62556 2 3 cbr 210 ------- 0 0.0 3.0 61 61
- 1.62556 2 3 cbr 210 ------- 0 0.0 3.0 61 61
r 1.6264 2 3 cbr 210 ------- 0 0.0 3.0 59 59
+ 1.63 0 2 cbr 210 ------- 0 0.0 3.0 63 63
- 1.63 0 2 cbr 210 ------- 0 0.0 3.0 63 63
r 1.63556 0 2 cbr 210 ------- 0 0.0 3.0 62 62
+ 1.63556 2 3 cbr 210 ------- 0 0.0 3.0 62 62
- 1.63556 2 3 cbr 210 ------- 0 0.0 3.0 62 62
r 1.6364 2 3 cbr 210 ------- 0 0.0 3.0 60 60
+ 1.64 0 2 cbr 210 ------- 0 0.0 3.0 64 64
- 1.64 0 2 cbr 210 ------- 0 0.0 3.0 64 64
r 1.64556 0 2 cbr 210 ------- 0 0.0 3.0 63 63
+ 1.64556 2 3 cbr 210 ------- 0 0.0 3.0 63 63
- 1.64556 2 3 cbr 210 ------- 0 0.0 3.0 63 63
r 1.6464 2 3 cbr 210 ------- 0 0.0 3.0 61 61
+ 1.65 0 2 cbr 210 ------- 0 0.0 3.0 65 65
- 1.65 0 2 cbr 210 ------- 0 0.0 3.0 65 65
r 1.65556 0 2 cbr 210 ------- 0 0.0 3.0 64 64
+ 1.65556 2 3 cbr 210 ------- 0 0.0 3.0 64 64
- 1.65556 2 3 cbr 210 ------- 0 0.0 3.0 64 64
r 1.6564 2 3 cbr 210 ------- 0 0.0 3.0 62 62
+ 1.66 0 2 cbr 210 ------- 0 0.0 3.0 66 66
- 1.66 0 2 cbr 210 ------- 0 0.0 3.0 66 66
r 1.66556 0 2 cbr 210 ------- 0 0.0 3.0 65 65
+ 1.66556 2 3 cbr 210 ------- 0 0.0 3.0 65 65
- 1.66556 2 3 cbr 210 ------- 0 0.0 3.0 65 65
r 1.6664 2 3 cbr 210 ------- 0 0.0 3.0 63 63
+ 1.67 0 2 cbr 210 ------- 0 0.0 3.0 67 67
- 1.67 0 2 cbr 210 ------- 0 0.0 3.0 67 67
r 1.67556 0 2 cbr 210 ------- 0 0.0 3.0 66 66
+ 1.67556 2 3 cbr 210 ------- 0 0.0 3.0 66 66
- 1.67556 2 3 cbr 210 ------- 0 0.0 3.0 66 66
r 1.6764 2 3 cbr 210 ------- 0 0.0 3.0 64 64
+ 1.68 0 2 cbr 210 ------- 0 0.0 3.0 68 68
- 1.68 0 2 cbr 210 ------- 0 0.0 3.0 68 68
r 1.68556 0 2 cbr 210 ------- 0 0.0 3.0 67 67
+ 1.68556 2 3 cbr 210 ------- 0 0.0 3.0 67 67
- 1.68556 2 3 cbr 210 ------- 0 0.0 3.0 67 67
r 1.6864 2 3 cbr 210 ------- 0 0.0 3.0 65 65
+ 1.69 0 2 cbr 210 ------- 0 0.0 3.0 69 69
- 1.69 0 2 cbr 210 ------- 0 0.0 3.0 69 69
r 1.69556 0 2 cbr 210 ------- 0 0.0 3.0 68 68
+ 1.69556 2 3 cbr 210 ------- 0 0.0 3.0 68 68
- 1.69556 2 3 cbr 210 ------- 0 0.0 3.0 68 68
r 1.6964 2 3 cbr 210 ------- 0 0.0 3.0 66 66
+ 1.7 0 2 cbr 210 ------- 0 0.0 3.0 70 70
- 1.7 0 2 cbr 210 ------- 0 0.0 3.0 70 70
r 1.70556 0 2 cbr 210 ------- 0 0.0 3.0 69 69
+ 1.70556 2 3 cbr 210 ------- 0 0.0 3.0 69 69
- 1.70556 2 3 cbr 210 ------- 0 0.0 3.0 69 69
r 1.7064 2 3 cbr 210 ------- 0 0.0 3.0 67 67
+ 1.71 0 2 cbr 210 ------- 0 0.0 3.0 71 71
- 1.71 0 2 cbr 210 ------- 0 0.0 3.0 71 71
r 1.71556 0 2 cbr 210 ------- 0 0.0 3.0 70 70
+ 1.71556 2 3 cbr 210 ------- 0 0.0 3.0 70 70
- 1.71556 2 3 cbr 210 ------- 0 0.0 3.0 70 70
r 1.7164 2 3 cbr 210 ------- 0 0.0 3.0 68 68
+ 1.72 0 2 cbr 210 ------- 0 0.0 3.0 72 72
- 1.72 0 2 cbr 210 ------- 0 0.0 3.0 72 72
r 1.72556 0 2 cbr 210 ------- 0 0.0 3.0 71 71
+ 1.72556 2 3 cbr 210 ------- 0 0.0 3.0 71 71
- 1.72556 2 3 cbr 210 ------- 0 0.0 3.0 71 71
r 1.7264 2 3 cbr 210 ------- 0 0.0 3.0 69 69
+ 1.73 0 2 cbr 210 ------- 0 0.0 3.0 73 73
- 1.73 0 2 cbr 210 ------- 0 0.0 3.0 73 73
r 1.73556 0 2 cbr 210 ------- 0 0.0 3.0 72 72
+ 1.73556 2 3 cbr 210 ------- 0 0.0 3.0 72 72
- 1.73556 2 3 cbr 210 ------- 0 0.0 3.0 72 72
r 1.7364 2 3 cbr 210 ------- 0 0.0 3.0 70 70
+ 1.74 0 2 cbr 210 ------- 0 0.0 3.0 74 74
- 1.74 0 2 cbr 210 ------- 0 0.0 3.0 74 74
r 1.74556 0 2 cbr 210 ------- 0 0.0 3.0 73 73
+ 1.74556 2 3 cbr 210 ------- 0 0.0 3.0 73 73
- 1.74556 2 3 cbr 210 ------- 0 0.0 3.0 73 73
r 1.7464 2 3 cbr 210 ------- 0 0.0 3.0 71 71
+ 1.75 0 2 cbr 210 ------- 0 0.0 3.0 75 75
- 1.75 0 2 cbr 210 ------- 0 0.0 3.0 75 75
r 1.75556 0 2 cbr 210 ------- 0 0.0 3.0 74 74
+ 1.75556 2 3 cbr 210 ------- 0 0.0 3.0 74 74
- 1.75556 2 3 cbr 210 ------- 0 0.0 3.0 74 74
r 1.7564 2 3 cbr 210 ------- 0 0.0 3.0 72 72
+ 1.76 0 2 cbr 210 ------- 0 0.0 3.0 76 76
- 1.76 0 2 cbr 210 ------- 0 0.0 3.0 76 76
r 1.76556 0 2 cbr 210 ------- 0 0.0 3.0 75 75
+ 1.76556 2 3 cbr 210 ------- 0 0.0 3.0 75 75
- 1.76556 2 3 cbr 210 ------- 0 0.0 3.0 75 75
r 1.7664 2 3 cbr 210 ------- 0 0.0 3.0 73 73
+ 1.77 0 2 cbr 210 ------- 0 0.0 3.0 77 77
- 1.77 0 2 cbr 210 ------- 0 0.0 3.0 77 77
r 1.77556 0 2 cbr 210 ------- 0 0.0 3.0 76 76
+ 1.77556 2 3 cbr 210 ------- 0 0.0 3.0 76 76
- 1.77556 2 3 cbr 210 ------- 0 0.0 3.0 76 76
r 1.7764 2 3 cbr 210 ------- 0 0.0 3.0 74 74
+ 1.78 0 2 cbr 210 ------- 0 0.0 3.0 78 78
- 1.78 0 2 cbr 210 ------- 0 0.0 3.0 78 78
r 1.78556 0 2 cbr 210 ------- 0 0.0 3.0 77 77
+ 1.78556 2 3 cbr 210 ------- 0 0.0 3.0 77 77
- 1.78556 2 3 cbr 210 ------- 0 0.0 3.0 77 77
r 1.7864 2 3 cbr 210 ------- 0 0.0 3.0 75 75
+ 1.79 0 2 cbr 210 ------- 0 0.0 3.0 79 79
- 1.79 0 2 cbr 210 ------- 0 0.0 3.0 79 79
r 1.79556 0 2 cbr 210 ------- 0 0.0 3.0 78 78
+ 1.79556 2 3 cbr 210 ------- 0 0.0 3.0 78 78
- 1.79556 2 3 cbr 210 ------- 0 0.0 3.0 78 78
r 1.7964 2 3 cbr 210 ------- 0 0.0 3.0 76 76
+ 1.8 0 2 cbr 210 ------- 0 0.0 3.0 80 80
- 1.8 0 2 cbr 210 ------- 0 0.0 3.0 80 80
r 1.80556 0 2 cbr 210 ------- 0 0.0 3.0 79 79
+ 1.80556 2 3 cbr 210 ------- 0 0.0 3.0 79 79
- 1.80556 2 3 cbr 210 ------- 0 0.0 3.0 79 79
r 1.8064 2 3 cbr 210 ------- 0 0.0 3.0 77 77
+ 1.81 0 2 cbr 210 ------- 0 0.0 3.0 81 81
- 1.81 0 2 cbr 210 ------- 0 0.0 3.0 81 81
r 1.81556 0 2 cbr 210 ------- 0 0.0 3.0 80 80
+ 1.81556 2 3 cbr 210 ------- 0 0.0 3.0 80 80
- 1.81556 2 3 cbr 210 ------- 0 0.0 3.0 80 80
r 1.8164 2 3 cbr 210 ------- 0 0.0 3.0 78 78
+ 1.82 0 2 cbr 210 ------- 0 0.0 3.0 82 82
- 1.82 0 2 cbr 210 ------- 0 0.0 3.0 82 82
r 1.82556 0 2 cbr 210 ------- 0 0.0 3.0 81 81
+ 1.82556 2 3 cbr 210 ------- 0 0.0 3.0 81 81
- 1.82556 2 3 cbr 210 ------- 0 0.0 3.0 81 81
r 1.8264 2 3 cbr 210 ------- 0 0.0 3.0 79 79
+ 1.83 0 2 cbr 210 ------- 0 0.0 3.0 83 83
- 1.83 0 2 cbr 210 ------- 0 0.0 3.0 83 83
r 1.83556 0 2 cbr 210 ------- 0 0.0 3.0 82 82
+ 1.83556 2 3 cbr 210 ------- 0 0.0 3.0 82 82
- 1.83556 2 3 cbr 210 ------- 0 0.0 3.0 82 82
r 1.8364 2 3 cbr 210 ------- 0 0.0 3.0 80 80
+ 1.84 0 2 cbr 210 ------- 0 0.0 3.0 84 84
- 1.84 0 2 cbr 210 ------- 0 0.0 3.0 84 84
r 1.84556 0 2 cbr 210 ------- 0 0.0 3.0 83 83
+ 1.84556 2 3 cbr 210 ------- 0 0.0 3.0 83 83
- 1.84556 2 3 cbr 210 ------- 0 0.0 3.0 83 83
r 1.8464 2 3 cbr 210 ------- 0 0.0 3.0 81 81
+ 1.85 0 2 cbr 210 ------- 0 0.0 3.0 85 85
- 1.85 0 2 cbr 210 ------- 0 0.0 3.0 85 85
r 1.85556 0 2 cbr 210 ------- 0 0.0 3.0 84 84
+ 1.85556 2 3 cbr 210 ------- 0 0.0 3.0 84 84
- 1.85556 2 3 cbr 210 ------- 0 0.0 3.0 84 84
r 1.8564 2 3 cbr 210 ------- 0 0.0 3.0 82 82
+ 1.86 0 2 cbr 210 ------- 0 0.0 3.0 86 86
- 1.86 0 2 cbr 210 ------- 0 0.0 3.0 86 86
r 1.86556 0 2 cbr 210 ------- 0 0.0 3.0 85 85
+ 1.86556 2 3 cbr 210 ------- 0 0.0 3.0 85 85
- 1.86556 2 3 cbr 210 ------- 0 0.0 3.0 85 85
r 1.8664 2 3 cbr 210 ------- 0 0.0 3.0 83 83
+ 1.87 0 2 cbr 210 ------- 0 0.0 3.0 87 87
- 1.87 0 2 cbr 210 ------- 0 0.0 3.0 87 87
r 1.87556 0 2 cbr 210 ------- 0 0.0 3.0 86 86
+ 1.87556 2 3 cbr 210 ------- 0 0.0 3.0 86 86
- 1.87556 2 3 cbr 210 ------- 0 0.0 3.0 86 86
r 1.8764 2 3 cbr 210 ------- 0 0.0 3.0 84 84
+ 1.88 0 2 cbr 210 ------- 0 0.0 3.0 88 88
- 1.88 0 2 cbr 210 ------- 0 0.0 3.0 88 88
r 1.88556 0 2 cbr 210 ------- 0 0.0 3.0 87 87
+ 1.88556 2 3 cbr 210 ------- 0 0.0 3.0 87 87
- 1.88556 2 3 cbr 210 ------- 0 0.0 3.0 87 87
r 1.8864 2 3 cbr 210 ------- 0 0.0 3.0 85 85
+ 1.89 0 2 cbr 210 ------- 0 0.0 3.0 89 89
- 1.89 0 2 cbr 210 ------- 0 0.0 3.0 89 89
r 1.89556 0 2 cbr 210 ------- 0 0.0 3.0 88 88
+ 1.89556 2 3 cbr 210 ------- 0 0.0 3.0 88 88
- 1.89556 2 3 cbr 210 ------- 0 0.0 3.0 88 88
r 1.8964 2 3 cbr 210 ------- 0 0.0 3.0 86 86
+ 1.9 0 2 cbr 210 ------- 0 0.0 3.0 90 90
- 1.9 0 2 cbr 210 ------- 0 0.0 3.0 90 90
r 1.90556 0 2 cbr 210 ------- 0 0.0 3.0 89 89
+ 1.90556 2 3 cbr 210 ------- 0 0.0 3.0 89 89
- 1.90556 2 3 cbr 210 ------- 0 0.0 3.0 89 89
r 1.9064 2 3 cbr 210 ------- 0 0.0 3.0 87 87
+ 1.91 0 2 cbr 210 ------- 0 0.0 3.0 91 91
- 1.91 0 2 cbr 210 ------- 0 0.0 3.0 91 91
r 1.91556 0 2 cbr 210 ------- 0 0.0 3.0 90 90
+ 1.91556 2 3 cbr 210 ------- 0 0.0 3.0 90 90
- 1.91556 2 3 cbr 210 ------- 0 0.0 3.0 90 90
r 1.9164 2 3 cbr 210 ------- 0 0.0 3.0 88 88
+ 1.92 0 2 cbr 210 ------- 0 0.0 3.0 92 92
- 1.92 0 2 cbr 210 ------- 0 0.0 3.0 92 92
r 1.92556 0 2 cbr 210 ------- 0 0.0 3.0 91 91
+ 1.92556 2 3 cbr 210 ------- 0 0.0 3.0 91 91
- 1.92556 2 3 cbr 210 ------- 0 0.0 3.0 91 91
r 1.9264 2 3 cbr 210 ------- 0 0.0 3.0 89 89
+ 1.93 0 2 cbr 210 ------- 0 0.0 3.0 93 93
- 1.93 0 2 cbr 210 ------- 0 0.0 3.0 93 93
r 1.93556 0 2 cbr 210 ------- 0 0.0 3.0 92 92
+ 1.93556 2 3 cbr 210 ------- 0 0.0 3.0 92 92
- 1.93556 2 3 cbr 210 ------- 0 0.0 3.0 92 92
r 1.9364 2 3 cbr 210 ------- 0 0.0 3.0 90 90
+ 1.94 0 2 cbr 210 ------- 0 0.0 3.0 94 94
- 1.94 0 2 cbr 210 ------- 0 0.0 3.0 94 94
r 1.94556 0 2 cbr 210 ------- 0 0.0 3.0 93 93
+ 1.94556 2 3 cbr 210 ------- 0 0.0 3.0 93 93
- 1.94556 2 3 cbr 210 ------- 0 0.0 3.0 93 93
r 1.9464 2 3 cbr 210 ------- 0 0.0 3.0 91 91
+ 1.95 0 2 cbr 210 ------- 0 0.0 3.0 95 95
- 1.95 0 2 cbr 210 ------- 0 0.0 3.0 95 95
r 1.95556 0 2 cbr 210 ------- 0 0.0 3.0 94 94
+ 1.95556 2 3 cbr 210 ------- 0 0.0 3.0 94 94
- 1.95556 2 3 cbr 210 ------- 0 0.0 3.0 94 94
r 1.9564 2 3 cbr 210 ------- 0 0.0 3.0 92 92
+ 1.96 0 2 cbr 210 ------- 0 0.0 3.0 96 96
- 1.96 0 2 cbr 210 ------- 0 0.0 3.0 96 96
r 1.96556 0 2 cbr 210 ------- 0 0.0 3.0 95 95
+ 1.96556 2 3 cbr 210 ------- 0 0.0 3.0 95 95
- 1.96556 2 3 cbr 210 ------- 0 0.0 3.0 95 95
r 1.9664 2 3 cbr 210 ------- 0 0.0 3.0 93 93
+ 1.97 0 2 cbr 210 ------- 0 0.0 3.0 97 97
- 1.97 0 2 cbr 210 ------- 0 0.0 3.0 97 97
r 1.97556 0 2 cbr 210 ------- 0 0.0 3.0 96 96
+ 1.97556 2 3 cbr 210 ------- 0 0.0 3.0 96 96
- 1.97556 2 3 cbr 210 ------- 0 0.0 3.0 96 96
r 1.9764 2 3 cbr 210 ------- 0 0.0 3.0 94 94
+ 1.98 0 2 cbr 210 ------- 0 0.0 3.0 98 98
- 1.98 0 2 cbr 210 ------- 0 0.0 3.0 98 98
r 1.98556 0 2 cbr 210 ------- 0 0.0 3.0 97 97
+ 1.98556 2 3 cbr 210 ------- 0 0.0 3.0 97 97
- 1.98556 2 3 cbr 210 ------- 0 0.0 3.0 97 97
r 1.9864 2 3 cbr 210 ------- 0 0.0 3.0 95 95
+ 1.99 0 2 cbr 210 ------- 0 0.0 3.0 99 99
- 1.99 0 2 cbr 210 ------- 0 0.0 3.0 99 99
r 1.99556 0 2 cbr 210 ------- 0 0.0 3.0 98 98
+ 1.99556 2 3 cbr 210 ------- 0 0.0 3.0 98 98
- 1.99556 2 3 cbr 210 ------- 0 0.0 3.0 98 98
r 1.9964 2 3 cbr 210 ------- 0 0.0 3.0 96 96
+ 2 0 2 cbr 210 ------- 0 0.0 3.0 100 100
- 2 0 2 cbr 210 ------- 0 0.0 3.0 100 100
r 2.00556 0 2 cbr 210 ------- 0 0.0 3.0 99 99
+ 2.00556 2 3 cbr 210 ------- 0 0.0 3.0 99 99
- 2.00556 2 3 cbr 210 ------- 0 0.0 3.0 99 99
r 2.0064 2 3 cbr 210 ------- 0 0.0 3.0 97 97
+ 2.01 0 2 cbr 210 ------- 0 0.0 3.0 101 101
- 2.01 0 2 cbr 210 ------- 0 0.0 3.0 101 101
r 2.01556 0 2 cbr 210 ------- 0 0.0 3.0 100 100
+ 2.01556 2 3 cbr 210 ------- 0 0.0 3.0 100 100
- 2.01556 2 3 cbr 210 ------- 0 0.0 3.0 100 100
r 2.0164 2 3 cbr 210 ------- 0 0.0 3.0 98 98
+ 2.02 0 2 cbr 210 ------- 0 0.0 3.0 102 102
- 2.02 0 2 cbr 210 ------- 0 0.0 3.0 102 102
r 2.02556 0 2 cbr 210 ------- 0 0.0 3.0 101 101
+ 2.02556 2 3 cbr 210 ------- 0 0.0 3.0 101 101
- 2.02556 2 3 cbr 210 ------- 0 0.0 3.0 101 101
r 2.0264 2 3 cbr 210 ------- 0 0.0 3.0 99 99
+ 2.03 0 2 cbr 210 ------- 0 0.0 3.0 103 103
- 2.03 0 2 cbr 210 ------- 0 0.0 3.0 103 103
r 2.03556 0 2 cbr 210 ------- 0 0.0 3.0 102 102
+ 2.03556 2 3 cbr 210 ------- 0 0.0 3.0 102 102
- 2.03556 2 3 cbr 210 ------- 0 0.0 3.0 102 102
r 2.0364 2 3 cbr 210 ------- 0 0.0 3.0 100 100
+ 2.04 0 2 cbr 210 ------- 0 0.0 3.0 104 104
- 2.04 0 2 cbr 210 ------- 0 0.0 3.0 104 104
r 2.04556 0 2 cbr 210 ------- 0 0.0 3.0 103 103
+ 2.04556 2 3 cbr 210 ------- 0 0.0 3.0 103 103
- 2.04556 2 3 cbr 210 ------- 0 0.0 3.0 103 103
r 2.0464 2 3 cbr 210 ------- 0 0.0 3.0 101 101
+ 2.05 0 2 cbr 210 ------- 0 0.0 3.0 105 105
- 2.05 0 2 cbr 210 ------- 0 0.0 3.0 105 105
r 2.05556 0 2 cbr 210 ------- 0 0.0 3.0 104 104
+ 2.05556 2 3 cbr 210 ------- 0 0.0 3.0 104 104
- 2.05556 2 3 cbr 210 ------- 0 0.0 3.0 104 104
r 2.0564 2 3 cbr 210 ------- 0 0.0 3.0 102 102
+ 2.06 0 2 cbr 210 ------- 0 0.0 3.0 106 106
- 2.06 0 2 cbr 210 ------- 0 0.0 3.0 106 106
r 2.06556 0 2 cbr 210 ------- 0 0.0 3.0 105 105
+ 2.06556 2 3 cbr 210 ------- 0 0.0 3.0 105 105
- 2.06556 2 3 cbr 210 ------- 0 0.0 3.0 105 105
r 2.0664 2 3 cbr 210 ------- 0 0.0 3.0 103 103
+ 2.07 0 2 cbr 210 ------- 0 0.0 3.0 107 107
- 2.07 0 2 cbr 210 ------- 0 0.0 3.0 107 107
r 2.07556 0 2 cbr 210 ------- 0 0.0 3.0 106 106
+ 2.07556 2 3 cbr 210 ------- 0 0.0 3.0 106 106
- 2.07556 2 3 cbr 210 ------- 0 0.0 3.0 106 106
r 2.0764 2 3 cbr 210 ------- 0 0.0 3.0 104 104
+ 2.08 0 2 cbr 210 ------- 0 0.0 3.0 108 108
- 2.08 0 2 cbr 210 ------- 0 0.0 3.0 108 108
r 2.08556 0 2 cbr 210 ------- 0 0.0 3.0 107 107
+ 2.08556 2 3 cbr 210 ------- 0 0.0 3.0 107 107
- 2.08556 2 3 cbr 210 ------- 0 0.0 3.0 107 107
r 2.0864 2 3 cbr 210 ------- 0 0.0 3.0 105 105
+ 2.09 0 2 cbr 210 ------- 0 0.0 3.0 109 109
- 2.09 0 2 cbr 210 ------- 0 0.0 3.0 109 109
r 2.09556 0 2 cbr 210 ------- 0 0.0 3.0 108 108
+ 2.09556 2 3 cbr 210 ------- 0 0.0 3.0 108 108
- 2.09556 2 3 cbr 210 ------- 0 0.0 3.0 108 108
r 2.0964 2 3 cbr 210 ------- 0 0.0 3.0 106 106
+ 2.1 0 2 cbr 210 ------- 0 0.0 3.0 110 110
- 2.1 0 2 cbr 210 ------- 0 0.0 3.0 110 110
r 2.10556 0 2 cbr 210 ------- 0 0.0 3.0 109 109
+ 2.10556 2 3 cbr 210 ------- 0 0.0 3.0 109 109
- 2.10556 2 3 cbr 210 ------- 0 0.0 3.0 109 109
r 2.1064 2 3 cbr 210 ------- 0 0.0 3.0 107 107
+ 2.11 0 2 cbr 210 ------- 0 0.0 3.0 111 111
- 2.11 0 2 cbr 210 ------- 0 0.0 3.0 111 111
r 2.11556 0 2 cbr 210 ------- 0 0.0 3.0 110 110
+ 2.11556 2 3 cbr 210 ------- 0 0.0 3.0 110 110
- 2.11556 2 3 cbr 210 ------- 0 0.0 3.0 110 110
r 2.1164 2 3 cbr 210 ------- 0 0.0 3.0 108 108
+ 2.12 0 2 cbr 210 ------- 0 0.0 3.0 112 112
- 2.12 0 2 cbr 210 ------- 0 0.0 3.0 112 112
r 2.12556 0 2 cbr 210 ------- 0 0.0 3.0 111 111