+ 1 0 1 cbr 50 ------- 0 0.0 1.0 0 0
- 1 0 1 cbr 50 ------- 0 0.0 1.0 0 0
r 1.00105 0 1 cbr 50 ------- 0 0.0 1.0 0 0
+ 1.002 0 1 cbr 50 ------- 0 0.0 1.0 1 1
- 1.002 0 1 cbr 50 ------- 0 0.0 1.0 1 1
r 1.00305 0 1 cbr 50 ------- 0 0.0 1.0 1 1
+ 1.004 0 1 cbr 50 ------- 0 0.0 1.0 2 2
- 1.004 0 1 cbr 50 ------- 0 0.0 1.0 2 2
r 1.00505 0 1 cbr 50 ------- 0 0.0 1.0 2 2
+ 1.006 0 1 cbr 50 ------- 0 0.0 1.0 3 3
- 1.006 0 1 cbr 50 ------- 0 0.0 1.0 3 3
r 1.00705 0 1 cbr 50 ------- 0 0.0 1.0 3 3
+ 1.008 0 1 cbr 50 ------- 0 0.0 1.0 4 4
- 1.008 0 1 cbr 50 ------- 0 0.0 1.0 4 4
r 1.00905 0 1 cbr 50 ------- 0 0.0 1.0 4 4
+ 1.01 0 1 cbr 50 ------- 0 0.0 1.0 5 5
- 1.01 0 1 cbr 50 ------- 0 0.0 1.0 5 5
r 1.01105 0 1 cbr 50 ------- 0 0.0 1.0 5 5
+ 1.012 0 1 cbr 50 ------- 0 0.0 1.0 6 6
- 1.012 0 1 cbr 50 ------- 0 0.0 1.0 6 6
r 1.01305 0 1 cbr 50 ------- 0 0.0 1.0 6 6
+ 1.014 0 1 cbr 50 ------- 0 0.0 1.0 7 7
- 1.014 0 1 cbr 50 ------- 0 0.0 1.0 7 7
r 1.01505 0 1 cbr 50 ------- 0 0.0 1.0 7 7
+ 1.016 0 1 cbr 50 ------- 0 0.0 1.0 8 8
- 1.016 0 1 cbr 50 ------- 0 0.0 1.0 8 8
r 1.01705 0 1 cbr 50 ------- 0 0.0 1.0 8 8
+ 1.018 0 1 cbr 50 ------- 0 0.0 1.0 9 9
- 1.018 0 1 cbr 50 ------- 0 0.0 1.0 9 9
r 1.01905 0 1 cbr 50 ------- 0 0.0 1.0 9 9
+ 1.02 0 1 cbr 50 ------- 0 0.0 1.0 10 10
- 1.02 0 1 cbr 50 ------- 0 0.0 1.0 10 10
r 1.02105 0 1 cbr 50 ------- 0 0.0 1.0 10 10
+ 1.022 0 1 cbr 50 ------- 0 0.0 1.0 11 11
- 1.022 0 1 cbr 50 ------- 0 0.0 1.0 11 11
r 1.02305 0 1 cbr 50 ------- 0 0.0 1.0 11 11
+ 1.024 0 1 cbr 50 ------- 0 0.0 1.0 12 12
- 1.024 0 1 cbr 50 ------- 0 0.0 1.0 12 12
r 1.02505 0 1 cbr 50 ------- 0 0.0 1.0 12 12
+ 1.026 0 1 cbr 50 ------- 0 0.0 1.0 13 13
- 1.026 0 1 cbr 50 ------- 0 0.0 1.0 13 13
r 1.02705 0 1 cbr 50 ------- 0 0.0 1.0 13 13
+ 1.028 0 1 cbr 50 ------- 0 0.0 1.0 14 14
- 1.028 0 1 cbr 50 ------- 0 0.0 1.0 14 14
r 1.02905 0 1 cbr 50 ------- 0 0.0 1.0 14 14
+ 1.03 0 1 cbr 50 ------- 0 0.0 1.0 15 15
- 1.03 0 1 cbr 50 ------- 0 0.0 1.0 15 15
r 1.03105 0 1 cbr 50 ------- 0 0.0 1.0 15 15
+ 1.032 0 1 cbr 50 ------- 0 0.0 1.0 16 16
- 1.032 0 1 cbr 50 ------- 0 0.0 1.0 16 16
r 1.03305 0 1 cbr 50 ------- 0 0.0 1.0 16 16
+ 1.034 0 1 cbr 50 ------- 0 0.0 1.0 17 17
- 1.034 0 1 cbr 50 ------- 0 0.0 1.0 17 17
r 1.03505 0 1 cbr 50 ------- 0 0.0 1.0 17 17
+ 1.036 0 1 cbr 50 ------- 0 0.0 1.0 18 18
- 1.036 0 1 cbr 50 ------- 0 0.0 1.0 18 18
r 1.03705 0 1 cbr 50 ------- 0 0.0 1.0 18 18
+ 1.038 0 1 cbr 50 ------- 0 0.0 1.0 19 19
- 1.038 0 1 cbr 50 ------- 0 0.0 1.0 19 19
r 1.03905 0 1 cbr 50 ------- 0 0.0 1.0 19 19
+ 1.04 0 1 cbr 50 ------- 0 0.0 1.0 20 20
- 1.04 0 1 cbr 50 ------- 0 0.0 1.0 20 20
r 1.04105 0 1 cbr 50 ------- 0 0.0 1.0 20 20
+ 1.042 0 1 cbr 50 ------- 0 0.0 1.0 21 21
- 1.042 0 1 cbr 50 ------- 0 0.0 1.0 21 21
r 1.04305 0 1 cbr 50 ------- 0 0.0 1.0 21 21
+ 1.044 0 1 cbr 50 ------- 0 0.0 1.0 22 22
- 1.044 0 1 cbr 50 ------- 0 0.0 1.0 22 22
r 1.04505 0 1 cbr 50 ------- 0 0.0 1.0 22 22
+ 1.046 0 1 cbr 50 ------- 0 0.0 1.0 23 23
- 1.046 0 1 cbr 50 ------- 0 0.0 1.0 23 23
r 1.04705 0 1 cbr 50 ------- 0 0.0 1.0 23 23
+ 1.048 0 1 cbr 50 ------- 0 0.0 1.0 24 24
- 1.048 0 1 cbr 50 ------- 0 0.0 1.0 24 24
r 1.04905 0 1 cbr 50 ------- 0 0.0 1.0 24 24
+ 1.05 0 1 cbr 50 ------- 0 0.0 1.0 25 25
- 1.05 0 1 cbr 50 ------- 0 0.0 1.0 25 25
r 1.05105 0 1 cbr 50 ------- 0 0.0 1.0 25 25
+ 1.052 0 1 cbr 50 ------- 0 0.0 1.0 26 26
- 1.052 0 1 cbr 50 ------- 0 0.0 1.0 26 26
r 1.05305 0 1 cbr 50 ------- 0 0.0 1.0 26 26
+ 1.054 0 1 cbr 50 ------- 0 0.0 1.0 27 27
- 1.054 0 1 cbr 50 ------- 0 0.0 1.0 27 27
r 1.05505 0 1 cbr 50 ------- 0 0.0 1.0 27 27
+ 1.056 0 1 cbr 50 ------- 0 0.0 1.0 28 28
- 1.056 0 1 cbr 50 ------- 0 0.0 1.0 28 28
r 1.05705 0 1 cbr 50 ------- 0 0.0 1.0 28 28
+ 1.058 0 1 cbr 50 ------- 0 0.0 1.0 29 29
- 1.058 0 1 cbr 50 ------- 0 0.0 1.0 29 29
r 1.05905 0 1 cbr 50 ------- 0 0.0 1.0 29 29
+ 1.06 0 1 cbr 50 ------- 0 0.0 1.0 30 30
- 1.06 0 1 cbr 50 ------- 0 0.0 1.0 30 30
r 1.06105 0 1 cbr 50 ------- 0 0.0 1.0 30 30
+ 1.062 0 1 cbr 50 ------- 0 0.0 1.0 31 31
- 1.062 0 1 cbr 50 ------- 0 0.0 1.0 31 31
r 1.06305 0 1 cbr 50 ------- 0 0.0 1.0 31 31
+ 1.064 0 1 cbr 50 ------- 0 0.0 1.0 32 32
- 1.064 0 1 cbr 50 ------- 0 0.0 1.0 32 32
r 1.06505 0 1 cbr 50 ------- 0 0.0 1.0 32 32
+ 1.066 0 1 cbr 50 ------- 0 0.0 1.0 33 33
- 1.066 0 1 cbr 50 ------- 0 0.0 1.0 33 33
r 1.06705 0 1 cbr 50 ------- 0 0.0 1.0 33 33
+ 1.068 0 1 cbr 50 ------- 0 0.0 1.0 34 34
- 1.068 0 1 cbr 50 ------- 0 0.0 1.0 34 34
r 1.06905 0 1 cbr 50 ------- 0 0.0 1.0 34 34
+ 1.07 0 1 cbr 50 ------- 0 0.0 1.0 35 35
- 1.07 0 1 cbr 50 ------- 0 0.0 1.0 35 35
r 1.07105 0 1 cbr 50 ------- 0 0.0 1.0 35 35
+ 1.072 0 1 cbr 50 ------- 0 0.0 1.0 36 36
- 1.072 0 1 cbr 50 ------- 0 0.0 1.0 36 36
r 1.07305 0 1 cbr 50 ------- 0 0.0 1.0 36 36
+ 1.074 0 1 cbr 50 ------- 0 0.0 1.0 37 37
- 1.074 0 1 cbr 50 ------- 0 0.0 1.0 37 37
r 1.07505 0 1 cbr 50 ------- 0 0.0 1.0 37 37
+ 1.076 0 1 cbr 50 ------- 0 0.0 1.0 38 38
- 1.076 0 1 cbr 50 ------- 0 0.0 1.0 38 38
r 1.07705 0 1 cbr 50 ------- 0 0.0 1.0 38 38
+ 1.078 0 1 cbr 50 ------- 0 0.0 1.0 39 39
- 1.078 0 1 cbr 50 ------- 0 0.0 1.0 39 39
r 1.07905 0 1 cbr 50 ------- 0 0.0 1.0 39 39
+ 1.08 0 1 cbr 50 ------- 0 0.0 1.0 40 40
- 1.08 0 1 cbr 50 ------- 0 0.0 1.0 40 40
r 1.08105 0 1 cbr 50 ------- 0 0.0 1.0 40 40
+ 1.082 0 1 cbr 50 ------- 0 0.0 1.0 41 41
- 1.082 0 1 cbr 50 ------- 0 0.0 1.0 41 41
r 1.08305 0 1 cbr 50 ------- 0 0.0 1.0 41 41
+ 1.084 0 1 cbr 50 ------- 0 0.0 1.0 42 42
- 1.084 0 1 cbr 50 ------- 0 0.0 1.0 42 42
r 1.08505 0 1 cbr 50 ------- 0 0.0 1.0 42 42
+ 1.086 0 1 cbr 50 ------- 0 0.0 1.0 43 43
- 1.086 0 1 cbr 50 ------- 0 0.0 1.0 43 43
r 1.08705 0 1 cbr 50 ------- 0 0.0 1.0 43 43
+ 1.088 0 1 cbr 50 ------- 0 0.0 1.0 44 44
- 1.088 0 1 cbr 50 ------- 0 0.0 1.0 44 44
r 1.08905 0 1 cbr 50 ------- 0 0.0 1.0 44 44
+ 1.09 0 1 cbr 50 ------- 0 0.0 1.0 45 45
- 1.09 0 1 cbr 50 ------- 0 0.0 1.0 45 45
r 1.09105 0 1 cbr 50 ------- 0 0.0 1.0 45 45
+ 1.092 0 1 cbr 50 ------- 0 0.0 1.0 46 46
- 1.092 0 1 cbr 50 ------- 0 0.0 1.0 46 46
r 1.09305 0 1 cbr 50 ------- 0 0.0 1.0 46 46
+ 1.094 0 1 cbr 50 ------- 0 0.0 1.0 47 47
- 1.094 0 1 cbr 50 ------- 0 0.0 1.0 47 47
r 1.09505 0 1 cbr 50 ------- 0 0.0 1.0 47 47
+ 1.096 0 1 cbr 50 ------- 0 0.0 1.0 48 48
- 1.096 0 1 cbr 50 ------- 0 0.0 1.0 48 48
r 1.09705 0 1 cbr 50 ------- 0 0.0 1.0 48 48
+ 1.098 0 1 cbr 50 ------- 0 0.0 1.0 49 49
- 1.098 0 1 cbr 50 ------- 0 0.0 1.0 49 49
r 1.09905 0 1 cbr 50 ------- 0 0.0 1.0 49 49
+ 1.1 0 1 cbr 50 ------- 0 0.0 1.0 50 50
- 1.1 0 1 cbr 50 ------- 0 0.0 1.0 50 50
r 1.10105 0 1 cbr 50 ------- 0 0.0 1.0 50 50
+ 1.102 0 1 cbr 50 ------- 0 0.0 1.0 51 51
- 1.102 0 1 cbr 50 ------- 0 0.0 1.0 51 51
r 1.10305 0 1 cbr 50 ------- 0 0.0 1.0 51 51
+ 1.104 0 1 cbr 50 ------- 0 0.0 1.0 52 52
- 1.104 0 1 cbr 50 ------- 0 0.0 1.0 52 52
r 1.10505 0 1 cbr 50 ------- 0 0.0 1.0 52 52
+ 1.106 0 1 cbr 50 ------- 0 0.0 1.0 53 53
- 1.106 0 1 cbr 50 ------- 0 0.0 1.0 53 53
r 1.10705 0 1 cbr 50 ------- 0 0.0 1.0 53 53
+ 1.108 0 1 cbr 50 ------- 0 0.0 1.0 54 54
- 1.108 0 1 cbr 50 ------- 0 0.0 1.0 54 54
r 1.10905 0 1 cbr 50 ------- 0 0.0 1.0 54 54
+ 1.11 0 1 cbr 50 ------- 0 0.0 1.0 55 55
- 1.11 0 1 cbr 50 ------- 0 0.0 1.0 55 55
r 1.11105 0 1 cbr 50 ------- 0 0.0 1.0 55 55
+ 1.112 0 1 cbr 50 ------- 0 0.0 1.0 56 56
- 1.112 0 1 cbr 50 ------- 0 0.0 1.0 56 56
r 1.11305 0 1 cbr 50 ------- 0 0.0 1.0 56 56
+ 1.114 0 1 cbr 50 ------- 0 0.0 1.0 57 57
- 1.114 0 1 cbr 50 ------- 0 0.0 1.0 57 57
r 1.11505 0 1 cbr 50 ------- 0 0.0 1.0 57 57
+ 1.116 0 1 cbr 50 ------- 0 0.0 1.0 58 58
- 1.116 0 1 cbr 50 ------- 0 0.0 1.0 58 58
r 1.11705 0 1 cbr 50 ------- 0 0.0 1.0 58 58
+ 1.118 0 1 cbr 50 ------- 0 0.0 1.0 59 59
- 1.118 0 1 cbr 50 ------- 0 0.0 1.0 59 59
r 1.11905 0 1 cbr 50 ------- 0 0.0 1.0 59 59
+ 1.12 0 1 cbr 50 ------- 0 0.0 1.0 60 60
- 1.12 0 1 cbr 50 ------- 0 0.0 1.0 60 60
r 1.12105 0 1 cbr 50 ------- 0 0.0 1.0 60 60
+ 1.122 0 1 cbr 50 ------- 0 0.0 1.0 61 61
- 1.122 0 1 cbr 50 ------- 0 0.0 1.0 61 61
r 1.12305 0 1 cbr 50 ------- 0 0.0 1.0 61 61
+ 1.124 0 1 cbr 50 ------- 0 0.0 1.0 62 62
- 1.124 0 1 cbr 50 ------- 0 0.0 1.0 62 62
r 1.12505 0 1 cbr 50 ------- 0 0.0 1.0 62 62
+ 1.126 0 1 cbr 50 ------- 0 0.0 1.0 63 63
- 1.126 0 1 cbr 50 ------- 0 0.0 1.0 63 63
r 1.12705 0 1 cbr 50 ------- 0 0.0 1.0 63 63
+ 1.128 0 1 cbr 50 ------- 0 0.0 1.0 64 64
- 1.128 0 1 cbr 50 ------- 0 0.0 1.0 64 64
r 1.12905 0 1 cbr 50 ------- 0 0.0 1.0 64 64
+ 1.13 0 1 cbr 50 ------- 0 0.0 1.0 65 65
- 1.13 0 1 cbr 50 ------- 0 0.0 1.0 65 65
r 1.13105 0 1 cbr 50 ------- 0 0.0 1.0 65 65
+ 1.132 0 1 cbr 50 ------- 0 0.0 1.0 66 66
- 1.132 0 1 cbr 50 ------- 0 0.0 1.0 66 66
r 1.13305 0 1 cbr 50 ------- 0 0.0 1.0 66 66
+ 1.134 0 1 cbr 50 ------- 0 0.0 1.0 67 67
- 1.134 0 1 cbr 50 ------- 0 0.0 1.0 67 67
r 1.13505 0 1 cbr 50 ------- 0 0.0 1.0 67 67
+ 1.136 0 1 cbr 50 ------- 0 0.0 1.0 68 68
- 1.136 0 1 cbr 50 ------- 0 0.0 1.0 68 68
r 1.13705 0 1 cbr 50 ------- 0 0.0 1.0 68 68
+ 1.138 0 1 cbr 50 ------- 0 0.0 1.0 69 69
- 1.138 0 1 cbr 50 ------- 0 0.0 1.0 69 69
r 1.13905 0 1 cbr 50 ------- 0 0.0 1.0 69 69
+ 1.14 0 1 cbr 50 ------- 0 0.0 1.0 70 70
- 1.14 0 1 cbr 50 ------- 0 0.0 1.0 70 70
r 1.14105 0 1 cbr 50 ------- 0 0.0 1.0 70 70
+ 1.142 0 1 cbr 50 ------- 0 0.0 1.0 71 71
- 1.142 0 1 cbr 50 ------- 0 0.0 1.0 71 71
r 1.14305 0 1 cbr 50 ------- 0 0.0 1.0 71 71
+ 1.144 0 1 cbr 50 ------- 0 0.0 1.0 72 72
- 1.144 0 1 cbr 50 ------- 0 0.0 1.0 72 72
r 1.14505 0 1 cbr 50 ------- 0 0.0 1.0 72 72
+ 1.146 0 1 cbr 50 ------- 0 0.0 1.0 73 73
- 1.146 0 1 cbr 50 ------- 0 0.0 1.0 73 73
r 1.14705 0 1 cbr 50 ------- 0 0.0 1.0 73 73
+ 1.148 0 1 cbr 50 ------- 0 0.0 1.0 74 74
- 1.148 0 1 cbr 50 ------- 0 0.0 1.0 74 74
r 1.14905 0 1 cbr 50 ------- 0 0.0 1.0 74 74
+ 1.15 0 1 cbr 50 ------- 0 0.0 1.0 75 75
- 1.15 0 1 cbr 50 ------- 0 0.0 1.0 75 75
r 1.15105 0 1 cbr 50 ------- 0 0.0 1.0 75 75
+ 1.152 0 1 cbr 50 ------- 0 0.0 1.0 76 76
- 1.152 0 1 cbr 50 ------- 0 0.0 1.0 76 76
r 1.15305 0 1 cbr 50 ------- 0 0.0 1.0 76 76
+ 1.154 0 1 cbr 50 ------- 0 0.0 1.0 77 77
- 1.154 0 1 cbr 50 ------- 0 0.0 1.0 77 77
r 1.15505 0 1 cbr 50 ------- 0 0.0 1.0 77 77
+ 1.156 0 1 cbr 50 ------- 0 0.0 1.0 78 78
- 1.156 0 1 cbr 50 ------- 0 0.0 1.0 78 78
r 1.15705 0 1 cbr 50 ------- 0 0.0 1.0 78 78
+ 1.158 0 1 cbr 50 ------- 0 0.0 1.0 79 79
- 1.158 0 1 cbr 50 ------- 0 0.0 1.0 79 79
r 1.15905 0 1 cbr 50 ------- 0 0.0 1.0 79 79
+ 1.16 0 1 cbr 50 ------- 0 0.0 1.0 80 80
- 1.16 0 1 cbr 50 ------- 0 0.0 1.0 80 80
r 1.16105 0 1 cbr 50 ------- 0 0.0 1.0 80 80
+ 1.162 0 1 cbr 50 ------- 0 0.0 1.0 81 81
- 1.162 0 1 cbr 50 ------- 0 0.0 1.0 81 81
r 1.16305 0 1 cbr 50 ------- 0 0.0 1.0 81 81
+ 1.164 0 1 cbr 50 ------- 0 0.0 1.0 82 82
- 1.164 0 1 cbr 50 ------- 0 0.0 1.0 82 82
r 1.16505 0 1 cbr 50 ------- 0 0.0 1.0 82 82
+ 1.166 0 1 cbr 50 ------- 0 0.0 1.0 83 83
- 1.166 0 1 cbr 50 ------- 0 0.0 1.0 83 83
r 1.16705 0 1 cbr 50 ------- 0 0.0 1.0 83 83
+ 1.168 0 1 cbr 50 ------- 0 0.0 1.0 84 84
- 1.168 0 1 cbr 50 ------- 0 0.0 1.0 84 84
r 1.16905 0 1 cbr 50 ------- 0 0.0 1.0 84 84
+ 1.17 0 1 cbr 50 ------- 0 0.0 1.0 85 85
- 1.17 0 1 cbr 50 ------- 0 0.0 1.0 85 85
r 1.17105 0 1 cbr 50 ------- 0 0.0 1.0 85 85
+ 1.172 0 1 cbr 50 ------- 0 0.0 1.0 86 86
- 1.172 0 1 cbr 50 ------- 0 0.0 1.0 86 86
r 1.17305 0 1 cbr 50 ------- 0 0.0 1.0 86 86
+ 1.174 0 1 cbr 50 ------- 0 0.0 1.0 87 87
- 1.174 0 1 cbr 50 ------- 0 0.0 1.0 87 87
r 1.17505 0 1 cbr 50 ------- 0 0.0 1.0 87 87
+ 1.176 0 1 cbr 50 ------- 0 0.0 1.0 88 88
- 1.176 0 1 cbr 50 ------- 0 0.0 1.0 88 88
r 1.17705 0 1 cbr 50 ------- 0 0.0 1.0 88 88
+ 1.178 0 1 cbr 50 ------- 0 0.0 1.0 89 89
- 1.178 0 1 cbr 50 ------- 0 0.0 1.0 89 89
r 1.17905 0 1 cbr 50 ------- 0 0.0 1.0 89 89
+ 1.18 0 1 cbr 50 ------- 0 0.0 1.0 90 90
- 1.18 0 1 cbr 50 ------- 0 0.0 1.0 90 90
r 1.18105 0 1 cbr 50 ------- 0 0.0 1.0 90 90
+ 1.182 0 1 cbr 50 ------- 0 0.0 1.0 91 91
- 1.182 0 1 cbr 50 ------- 0 0.0 1.0 91 91
r 1.18305 0 1 cbr 50 ------- 0 0.0 1.0 91 91
+ 1.184 0 1 cbr 50 ------- 0 0.0 1.0 92 92
- 1.184 0 1 cbr 50 ------- 0 0.0 1.0 92 92
r 1.18505 0 1 cbr 50 ------- 0 0.0 1.0 92 92
+ 1.186 0 1 cbr 50 ------- 0 0.0 1.0 93 93
- 1.186 0 1 cbr 50 ------- 0 0.0 1.0 93 93
r 1.18705 0 1 cbr 50 ------- 0 0.0 1.0 93 93
+ 1.188 0 1 cbr 50 ------- 0 0.0 1.0 94 94
- 1.188 0 1 cbr 50 ------- 0 0.0 1.0 94 94
r 1.18905 0 1 cbr 50 ------- 0 0.0 1.0 94 94
+ 1.19 0 1 cbr 50 ------- 0 0.0 1.0 95 95
- 1.19 0 1 cbr 50 ------- 0 0.0 1.0 95 95
r 1.19105 0 1 cbr 50 ------- 0 0.0 1.0 95 95
+ 1.192 0 1 cbr 50 ------- 0 0.0 1.0 96 96
- 1.192 0 1 cbr 50 ------- 0 0.0 1.0 96 96
r 1.19305 0 1 cbr 50 ------- 0 0.0 1.0 96 96
+ 1.194 0 1 cbr 50 ------- 0 0.0 1.0 97 97
- 1.194 0 1 cbr 50 ------- 0 0.0 1.0 97 97
r 1.19505 0 1 cbr 50 ------- 0 0.0 1.0 97 97
+ 1.196 0 1 cbr 50 ------- 0 0.0 1.0 98 98
- 1.196 0 1 cbr 50 ------- 0 0.0 1.0 98 98
r 1.19705 0 1 cbr 50 ------- 0 0.0 1.0 98 98
+ 1.198 0 1 cbr 50 ------- 0 0.0 1.0 99 99
- 1.198 0 1 cbr 50 ------- 0 0.0 1.0 99 99
r 1.19905 0 1 cbr 50 ------- 0 0.0 1.0 99 99
+ 1.2 0 1 cbr 50 ------- 0 0.0 1.0 100 100
- 1.2 0 1 cbr 50 ------- 0 0.0 1.0 100 100
r 1.20105 0 1 cbr 50 ------- 0 0.0 1.0 100 100
+ 1.202 0 1 cbr 50 ------- 0 0.0 1.0 101 101
- 1.202 0 1 cbr 50 ------- 0 0.0 1.0 101 101
r 1.20305 0 1 cbr 50 ------- 0 0.0 1.0 101 101
+ 1.204 0 1 cbr 50 ------- 0 0.0 1.0 102 102
- 1.204 0 1 cbr 50 ------- 0 0.0 1.0 102 102
r 1.20505 0 1 cbr 50 ------- 0 0.0 1.0 102 102
+ 1.206 0 1 cbr 50 ------- 0 0.0 1.0 103 103
- 1.206 0 1 cbr 50 ------- 0 0.0 1.0 103 103
r 1.20705 0 1 cbr 50 ------- 0 0.0 1.0 103 103
+ 1.208 0 1 cbr 50 ------- 0 0.0 1.0 104 104
- 1.208 0 1 cbr 50 ------- 0 0.0 1.0 104 104
r 1.20905 0 1 cbr 50 ------- 0 0.0 1.0 104 104
+ 1.21 0 1 cbr 50 ------- 0 0.0 1.0 105 105
- 1.21 0 1 cbr 50 ------- 0 0.0 1.0 105 105
r 1.21105 0 1 cbr 50 ------- 0 0.0 1.0 105 105
+ 1.212 0 1 cbr 50 ------- 0 0.0 1.0 106 106
- 1.212 0 1 cbr 50 ------- 0 0.0 1.0 106 106
r 1.21305 0 1 cbr 50 ------- 0 0.0 1.0 106 106
+ 1.214 0 1 cbr 50 ------- 0 0.0 1.0 107 107
- 1.214 0 1 cbr 50 ------- 0 0.0 1.0 107 107
r 1.21505 0 1 cbr 50 ------- 0 0.0 1.0 107 107
+ 1.216 0 1 cbr 50 ------- 0 0.0 1.0 108 108
- 1.216 0 1 cbr 50 ------- 0 0.0 1.0 108 108
r 1.21705 0 1 cbr 50 ------- 0 0.0 1.0 108 108
+ 1.218 0 1 cbr 50 ------- 0 0.0 1.0 109 109
- 1.218 0 1 cbr 50 ------- 0 0.0 1.0 109 109
r 1.21905 0 1 cbr 50 ------- 0 0.0 1.0 109 109
+ 1.22 0 1 cbr 50 ------- 0 0.0 1.0 110 110
- 1.22 0 1 cbr 50 ------- 0 0.0 1.0 110 110
r 1.22105 0 1 cbr 50 ------- 0 0.0 1.0 110 110
+ 1.222 0 1 cbr 50 ------- 0 0.0 1.0 111 111
- 1.222 0 1 cbr 50 ------- 0 0.0 1.0 111 111
r 1.22305 0 1 cbr 50 ------- 0 0.0 1.0 111 111
+ 1.224 0 1 cbr 50 ------- 0 0.0 1.0 112 112
- 1.224 0 1 cbr 50 ------- 0 0.0 1.0 112 112
r 1.22505 0 1 cbr 50 ------- 0 0.0 1.0 112 112
+ 1.226 0 1 cbr 50 ------- 0 0.0 1.0 113 113
- 1.226 0 1 cbr 50 ------- 0 0.0 1.0 113 113
r 1.22705 0 1 cbr 50 ------- 0 0.0 1.0 113 113
+ 1.228 0 1 cbr 50 ------- 0 0.0 1.0 114 114
- 1.228 0 1 cbr 50 ------- 0 0.0 1.0 114 114
r 1.22905 0 1 cbr 50 ------- 0 0.0 1.0 114 114
+ 1.23 0 1 cbr 50 ------- 0 0.0 1.0 115 115
- 1.23 0 1 cbr 50 ------- 0 0.0 1.0 115 115
r 1.23105 0 1 cbr 50 ------- 0 0.0 1.0 115 115
+ 1.232 0 1 cbr 50 ------- 0 0.0 1.0 116 116
- 1.232 0 1 cbr 50 ------- 0 0.0 1.0 116 116
r 1.23305 0 1 cbr 50 ------- 0 0.0 1.0 116 116
+ 1.234 0 1 cbr 50 ------- 0 0.0 1.0 117 117
- 1.234 0 1 cbr 50 ------- 0 0.0 1.0 117 117
r 1.23505 0 1 cbr 50 ------- 0 0.0 1.0 117 117
+ 1.236 0 1 cbr 50 ------- 0 0.0 1.0 118 118
- 1.236 0 1 cbr 50 ------- 0 0.0 1.0 118 118
r 1.23705 0 1 cbr 50 ------- 0 0.0 1.0 118 118
+ 1.238 0 1 cbr 50 ------- 0 0.0 1.0 119 119
- 1.238 0 1 cbr 50 ------- 0 0.0 1.0 119 119
r 1.23905 0 1 cbr 50 ------- 0 0.0 1.0 119 119
+ 1.24 0 1 cbr 50 ------- 0 0.0 1.0 120 120
- 1.24 0 1 cbr 50 ------- 0 0.0 1.0 120 120
r 1.24105 0 1 cbr 50 ------- 0 0.0 1.0 120 120
+ 1.242 0 1 cbr 50 ------- 0 0.0 1.0 121 121
- 1.242 0 1 cbr 50 ------- 0 0.0 1.0 121 121
r 1.24305 0 1 cbr 50 ------- 0 0.0 1.0 121 121
+ 1.244 0 1 cbr 50 ------- 0 0.0 1.0 122 122
- 1.244 0 1 cbr 50 ------- 0 0.0 1.0 122 122
r 1.24505 0 1 cbr 50 ------- 0 0.0 1.0 122 122
+ 1.246 0 1 cbr 50 ------- 0 0.0 1.0 123 123
- 1.246 0 1 cbr 50 ------- 0 0.0 1.0 123 123
r 1.24705 0 1 cbr 50 ------- 0 0.0 1.0 123 123
+ 1.248 0 1 cbr 50 ------- 0 0.0 1.0 124 124
- 1.248 0 1 cbr 50 ------- 0 0.0 1.0 124 124
r 1.24905 0 1 cbr 50 ------- 0 0.0 1.0 124 124
+ 1.25 0 1 cbr 50 ------- 0 0.0 1.0 125 125
- 1.25 0 1 cbr 50 ------- 0 0.0 1.0 125 125
r 1.25105 0 1 cbr 50 ------- 0 0.0 1.0 125 125
+ 1.252 0 1 cbr 50 ------- 0 0.0 1.0 126 126
- 1.252 0 1 cbr 50 ------- 0 0.0 1.0 126 126
r 1.25305 0 1 cbr 50 ------- 0 0.0 1.0 126 126
+ 1.254 0 1 cbr 50 ------- 0 0.0 1.0 127 127
- 1.254 0 1 cbr 50 ------- 0 0.0 1.0 127 127
r 1.25505 0 1 cbr 50 ------- 0 0.0 1.0 127 127
+ 1.256 0 1 cbr 50 ------- 0 0.0 1.0 128 128
- 1.256 0 1 cbr 50 ------- 0 0.0 1.0 128 128
r 1.25705 0 1 cbr 50 ------- 0 0.0 1.0 128 128
+ 1.258 0 1 cbr 50 ------- 0 0.0 1.0 129 129
- 1.258 0 1 cbr 50 ------- 0 0.0 1.0 129 129
r 1.25905 0 1 cbr 50 ------- 0 0.0 1.0 129 129
+ 1.26 0 1 cbr 50 ------- 0 0.0 1.0 130 130
- 1.26 0 1 cbr 50 ------- 0 0.0 1.0 130 130
r 1.26105 0 1 cbr 50 ------- 0 0.0 1.0 130 130
+ 1.262 0 1 cbr 50 ------- 0 0.0 1.0 131 131
- 1.262 0 1 cbr 50 ------- 0 0.0 1.0 131 131
r 1.26305 0 1 cbr 50 ------- 0 0.0 1.0 131 131
+ 1.264 0 1 cbr 50 ------- 0 0.0 1.0 132 132
- 1.264 0 1 cbr 50 ------- 0 0.0 1.0 132 132
r 1.26505 0 1 cbr 50 ------- 0 0.0 1.0 132 132
+ 1.266 0 1 cbr 50 ------- 0 0.0 1.0 133 133
- 1.266 0 1 cbr 50 ------- 0 0.0 1.0 133 133
r 1.26705 0 1 cbr 50 ------- 0 0.0 1.0 133 133
+ 1.268 0 1 cbr 50 ------- 0 0.0 1.0 134 134
- 1.268 0 1 cbr 50 ------- 0 0.0 1.0 134 134
r 1.26905 0 1 cbr 50 ------- 0 0.0 1.0 134 134
+ 1.27 0 1 cbr 50 ------- 0 0.0 1.0 135 135
- 1.27 0 1 cbr 50 ------- 0 0.0 1.0 135 135
r 1.27105 0 1 cbr 50 ------- 0 0.0 1.0 135 135
+ 1.272 0 1 cbr 50 ------- 0 0.0 1.0 136 136
- 1.272 0 1 cbr 50 ------- 0 0.0 1.0 136 136
r 1.27305 0 1 cbr 50 ------- 0 0.0 1.0 136 136
+ 1.274 0 1 cbr 50 ------- 0 0.0 1.0 137 137
- 1.274 0 1 cbr 50 ------- 0 0.0 1.0 137 137
r 1.27505 0 1 cbr 50 ------- 0 0.0 1.0 137 137
+ 1.276 0 1 cbr 50 ------- 0 0.0 1.0 138 138
- 1.276 0 1 cbr 50 ------- 0 0.0 1.0 138 138
r 1.27705 0 1 cbr 50 ------- 0 0.0 1.0 138 138
+ 1.278 0 1 cbr 50 ------- 0 0.0 1.0 139 139
- 1.278 0 1 cbr 50 ------- 0 0.0 1.0 139 139
r 1.27905 0 1 cbr 50 ------- 0 0.0 1.0 139 139
+ 1.28 0 1 cbr 50 ------- 0 0.0 1.0 140 140
- 1.28 0 1 cbr 50 ------- 0 0.0 1.0 140 140
r 1.28105 0 1 cbr 50 ------- 0 0.0 1.0 140 140
+ 1.282 0 1 cbr 50 ------- 0 0.0 1.0 141 141
- 1.282 0 1 cbr 50 ------- 0 0.0 1.0 141 141
r 1.28305 0 1 cbr 50 ------- 0 0.0 1.0 141 141
+ 1.284 0 1 cbr 50 ------- 0 0.0 1.0 142 142
- 1.284 0 1 cbr 50 ------- 0 0.0 1.0 142 142
r 1.28505 0 1 cbr 50 ------- 0 0.0 1.0 142 142
+ 1.286 0 1 cbr 50 ------- 0 0.0 1.0 143 143
- 1.286 0 1 cbr 50 ------- 0 0.0 1.0 143 143
r 1.28705 0 1 cbr 50 ------- 0 0.0 1.0 143 143
+ 1.288 0 1 cbr 50 ------- 0 0.0 1.0 144 144
- 1.288 0 1 cbr 50 ------- 0 0.0 1.0 144 144
r 1.28905 0 1 cbr 50 ------- 0 0.0 1.0 144 144
+ 1.29 0 1 cbr 50 ------- 0 0.0 1.0 145 145
- 1.29 0 1 cbr 50 ------- 0 0.0 1.0 145 145
r 1.29105 0 1 cbr 50 ------- 0 0.0 1.0 145 145
+ 1.292 0 1 cbr 50 ------- 0 0.0 1.0 146 146
- 1.292 0 1 cbr 50 ------- 0 0.0 1.0 146 146
r 1.29305 0 1 cbr 50 ------- 0 0.0 1.0 146 146
+ 1.294 0 1 cbr 50 ------- 0 0.0 1.0 147 147
- 1.294 0 1 cbr 50 ------- 0 0.0 1.0 147 147
r 1.29505 0 1 cbr 50 ------- 0 0.0 1.0 147 147
+ 1.296 0 1 cbr 50 ------- 0 0.0 1.0 148 148
- 1.296 0 1 cbr 50 ------- 0 0.0 1.0 148 148
r 1.29705 0 1 cbr 50 ------- 0 0.0 1.0 148 148
+ 1.298 0 1 cbr 50 ------- 0 0.0 1.0 149 149
- 1.298 0 1 cbr 50 ------- 0 0.0 1.0 149 149
r 1.29905 0 1 cbr 50 ------- 0 0.0 1.0 149 149
+ 1.3 0 1 cbr 50 ------- 0 0.0 1.0 150 150
- 1.3 0 1 cbr 50 ------- 0 0.0 1.0 150 150
r 1.30105 0 1 cbr 50 ------- 0 0.0 1.0 150 150
+ 1.302 0 1 cbr 50 ------- 0 0.0 1.0 151 151
- 1.302 0 1 cbr 50 ------- 0 0.0 1.0 151 151
r 1.30305 0 1 cbr 50 ------- 0 0.0 1.0 151 151
+ 1.304 0 1 cbr 50 ------- 0 0.0 1.0 152 152
- 1.304 0 1 cbr 50 ------- 0 0.0 1.0 152 152
r 1.30505 0 1 cbr 50 ------- 0 0.0 1.0 152 152
+ 1.306 0 1 cbr 50 ------- 0 0.0 1.0 153 153
- 1.306 0 1 cbr 50 ------- 0 0.0 1.0 153 153
r 1.30705 0 1 cbr 50 ------- 0 0.0 1.0 153 153
+ 1.308 0 1 cbr 50 ------- 0 0.0 1.0 154 154
- 1.308 0 1 cbr 50 ------- 0 0.0 1.0 154 154
r 1.30905 0 1 cbr 50 ------- 0 0.0 1.0 154 154
+ 1.31 0 1 cbr 50 ------- 0 0.0 1.0 155 155
- 1.31 0 1 cbr 50 ------- 0 0.0 1.0 155 155
r 1.31105 0 1 cbr 50 ------- 0 0.0 1.0 155 155
+ 1.312 0 1 cbr 50 ------- 0 0.0 1.0 156 156
- 1.312 0 1 cbr 50 ------- 0 0.0 1.0 156 156
r 1.31305 0 1 cbr 50 ------- 0 0.0 1.0 156 156
+ 1.314 0 1 cbr 50 ------- 0 0.0 1.0 157 157
- 1.314 0 1 cbr 50 ------- 0 0.0 1.0 157 157
r 1.31505 0 1 cbr 50 ------- 0 0.0 1.0 157 157
+ 1.316 0 1 cbr 50 ------- 0 0.0 1.0 158 158
- 1.316 0 1 cbr 50 ------- 0 0.0 1.0 158 158
r 1.31705 0 1 cbr 50 ------- 0 0.0 1.0 158 158
+ 1.318 0 1 cbr 50 ------- 0 0.0 1.0 159 159
- 1.318 0 1 cbr 50 ------- 0 0.0 1.0 159 159
r 1.31905 0 1 cbr 50 ------- 0 0.0 1.0 159 159
+ 1.32 0 1 cbr 50 ------- 0 0.0 1.0 160 160
- 1.32 0 1 cbr 50 ------- 0 0.0 1.0 160 160
r 1.32105 0 1 cbr 50 ------- 0 0.0 1.0 160 160
+ 1.322 0 1 cbr 50 ------- 0 0.0 1.0 161 161
- 1.322 0 1 cbr 50 ------- 0 0.0 1.0 161 161
r 1.32305 0 1 cbr 50 ------- 0 0.0 1.0 161 161
+ 1.324 0 1 cbr 50 ------- 0 0.0 1.0 162 162
- 1.324 0 1 cbr 50 ------- 0 0.0 1.0 162 162
r 1.32505 0 1 cbr 50 ------- 0 0.0 1.0 162 162
+ 1.326 0 1 cbr 50 ------- 0 0.0 1.0 163 163
- 1.326 0 1 cbr 50 ------- 0 0.0 1.0 163 163
r 1.32705 0 1 cbr 50 ------- 0 0.0 1.0 163 163
+ 1.328 0 1 cbr 50 ------- 0 0.0 1.0 164 164
- 1.328 0 1 cbr 50 ------- 0 0.0 1.0 164 164
r 1.32905 0 1 cbr 50 ------- 0 0.0 1.0 164 164
+ 1.33 0 1 cbr 50 ------- 0 0.0 1.0 165 165
- 1.33 0 1 cbr 50 ------- 0 0.0 1.0 165 165
r 1.33105 0 1 cbr 50 ------- 0 0.0 1.0 165 165
+ 1.332 0 1 cbr 50 ------- 0 0.0 1.0 166 166
- 1.332 0 1 cbr 50 ------- 0 0.0 1.0 166 166
r 1.33305 0 1 cbr 50 ------- 0 0.0 1.0 166 166
+ 1.334 0 1 cbr 50 ------- 0 0.0 1.0 167 167
- 1.334 0 1 cbr 50 ------- 0 0.0 1.0 167 167
r 1.33505 0 1 cbr 50 ------- 0 0.0 1.0 167 167
+ 1.336 0 1 cbr 50 ------- 0 0.0 1.0 168 168
- 1.336 0 1 cbr 50 ------- 0 0.0 1.0 168 168
r 1.33705 0 1 cbr 50 ------- 0 0.0 1.0 168 168
+ 1.338 0 1 cbr 50 ------- 0 0.0 1.0 169 169
- 1.338 0 1 cbr 50 ------- 0 0.0 1.0 169 169
r 1.33905 0 1 cbr 50 ------- 0 0.0 1.0 169 169
+ 1.34 0 1 cbr 50 ------- 0 0.0 1.0 170 170
- 1.34 0 1 cbr 50 ------- 0 0.0 1.0 170 170
r 1.34105 0 1 cbr 50 ------- 0 0.0 1.0 170 170
+ 1.342 0 1 cbr 50 ------- 0 0.0 1.0 171 171
- 1.342 0 1 cbr 50 ------- 0 0.0 1.0 171 171
r 1.34305 0 1 cbr 50 ------- 0 0.0 1.0 171 171
+ 1.344 0 1 cbr 50 ------- 0 0.0 1.0 172 172
- 1.344 0 1 cbr 50 ------- 0 0.0 1.0 172 172
r 1.34505 0 1 cbr 50 ------- 0 0.0 1.0 172 172
+ 1.346 0 1 cbr 50 ------- 0 0.0 1.0 173 173
- 1.346 0 1 cbr 50 ------- 0 0.0 1.0 173 173
r 1.34705 0 1 cbr 50 ------- 0 0.0 1.0 173 173
+ 1.348 0 1 cbr 50 ------- 0 0.0 1.0 174 174
- 1.348 0 1 cbr 50 ------- 0 0.0 1.0 174 174
r 1.34905 0 1 cbr 50 ------- 0 0.0 1.0 174 174
+ 1.35 0 1 cbr 50 ------- 0 0.0 1.0 175 175
- 1.35 0 1 cbr 50 ------- 0 0.0 1.0 175 175
r 1.35105 0 1 cbr 50 ------- 0 0.0 1.0 175 175
+ 1.352 0 1 cbr 50 ------- 0 0.0 1.0 176 176
- 1.352 0 1 cbr 50 ------- 0 0.0 1.0 176 176
r 1.35305 0 1 cbr 50 ------- 0 0.0 1.0 176 176
+ 1.354 0 1 cbr 50 ------- 0 0.0 1.0 177 177
- 1.354 0 1 cbr 50 ------- 0 0.0 1.0 177 177
r 1.35505 0 1 cbr 50 ------- 0 0.0 1.0 177 177
+ 1.356 0 1 cbr 50 ------- 0 0.0 1.0 178 178
- 1.356 0 1 cbr 50 ------- 0 0.0 1.0 178 178
r 1.35705 0 1 cbr 50 ------- 0 0.0 1.0 178 178
+ 1.358 0 1 cbr 50 ------- 0 0.0 1.0 179 179
- 1.358 0 1 cbr 50 ------- 0 0.0 1.0 179 179
r 1.35905 0 1 cbr 50 ------- 0 0.0 1.0 179 179
+ 1.36 0 1 cbr 50 ------- 0 0.0 1.0 180 180
- 1.36 0 1 cbr 50 ------- 0 0.0 1.0 180 180
r 1.36105 0 1 cbr 50 ------- 0 0.0 1.0 180 180
+ 1.362 0 1 cbr 50 ------- 0 0.0 1.0 181 181
- 1.362 0 1 cbr 50 ------- 0 0.0 1.0 181 181
r 1.36305 0 1 cbr 50 ------- 0 0.0 1.0 181 181
+ 1.364 0 1 cbr 50 ------- 0 0.0 1.0 182 182
- 1.364 0 1 cbr 50 ------- 0 0.0 1.0 182 182
r 1.36505 0 1 cbr 50 ------- 0 0.0 1.0 182 182
+ 1.366 0 1 cbr 50 ------- 0 0.0 1.0 183 183
- 1.366 0 1 cbr 50 ------- 0 0.0 1.0 183 183
r 1.36705 0 1 cbr 50 ------- 0 0.0 1.0 183 183
+ 1.368 0 1 cbr 50 ------- 0 0.0 1.0 184 184
- 1.368 0 1 cbr 50 ------- 0 0.0 1.0 184 184
r 1.36905 0 1 cbr 50 ------- 0 0.0 1.0 184 184
+ 1.37 0 1 cbr 50 ------- 0 0.0 1.0 185 185
- 1.37 0 1 cbr 50 ------- 0 0.0 1.0 185 185
r 1.37105 0 1 cbr 50 ------- 0 0.0 1.0 185 185
+ 1.372 0 1 cbr 50 ------- 0 0.0 1.0 186 186
- 1.372 0 1 cbr 50 ------- 0 0.0 1.0 186 186
r 1.37305 0 1 cbr 50 ------- 0 0.0 1.0 186 186
+ 1.374 0 1 cbr 50 ------- 0 0.0 1.0 187 187
- 1.374 0 1 cbr 50 ------- 0 0.0 1.0 187 187
r 1.37505 0 1 cbr 50 ------- 0 0.0 1.0 187 187
+ 1.376 0 1 cbr 50 ------- 0 0.0 1.0 188 188
- 1.376 0 1 cbr 50 ------- 0 0.0 1.0 188 188
r 1.37705 0 1 cbr 50 ------- 0 0.0 1.0 188 188
+ 1.378 0 1 cbr 50 ------- 0 0.0 1.0 189 189
- 1.378 0 1 cbr 50 ------- 0 0.0 1.0 189 189
r 1.37905 0 1 cbr 50 ------- 0 0.0 1.0 189 189
+ 1.38 0 1 cbr 50 ------- 0 0.0 1.0 190 190
- 1.38 0 1 cbr 50 ------- 0 0.0 1.0 190 190
r 1.38105 0 1 cbr 50 ------- 0 0.0 1.0 190 190
+ 1.382 0 1 cbr 50 ------- 0 0.0 1.0 191 191
- 1.382 0 1 cbr 50 ------- 0 0.0 1.0 191 191
r 1.38305 0 1 cbr 50 ------- 0 0.0 1.0 191 191
+ 1.384 0 1 cbr 50 ------- 0 0.0 1.0 192 192
- 1.384 0 1 cbr 50 ------- 0 0.0 1.0 192 192
r 1.38505 0 1 cbr 50 ------- 0 0.0 1.0 192 192
+ 1.386 0 1 cbr 50 ------- 0 0.0 1.0 193 193
- 1.386 0 1 cbr 50 ------- 0 0.0 1.0 193 193
r 1.38705 0 1 cbr 50 ------- 0 0.0 1.0 193 193
+ 1.388 0 1 cbr 50 ------- 0 0.0 1.0 194 194
- 1.388 0 1 cbr 50 ------- 0 0.0 1.0 194 194
r 1.38905 0 1 cbr 50 ------- 0 0.0 1.0 194 194
+ 1.39 0 1 cbr 50 ------- 0 0.0 1.0 195 195
- 1.39 0 1 cbr 50 ------- 0 0.0 1.0 195 195
r 1.39105 0 1 cbr 50 ------- 0 0.0 1.0 195 195
+ 1.392 0 1 cbr 50 ------- 0 0.0 1.0 196 196
- 1.392 0 1 cbr 50 ------- 0 0.0 1.0 196 196
r 1.39305 0 1 cbr 50 ------- 0 0.0 1.0 196 196
+ 1.394 0 1 cbr 50 ------- 0 0.0 1.0 197 197
- 1.394 0 1 cbr 50 ------- 0 0.0 1.0 197 197
r 1.39505 0 1 cbr 50 ------- 0 0.0 1.0 197 197
+ 1.396 0 1 cbr 50 ------- 0 0.0 1.0 198 198
- 1.396 0 1 cbr 50 ------- 0 0.0 1.0 198 198
r 1.39705 0 1 cbr 50 ------- 0 0.0 1.0 198 198
+ 1.398 0 1 cbr 50 ------- 0 0.0 1.0 199 199
- 1.398 0 1 cbr 50 ------- 0 0.0 1.0 199 199
r 1.39905 0 1 cbr 50 ------- 0 0.0 1.0 199 199
+ 1.4 0 1 cbr 50 ------- 0 0.0 1.0 200 200
- 1.4 0 1 cbr 50 ------- 0 0.0 1.0 200 200
r 1.40105 0 1 cbr 50 ------- 0 0.0 1.0 200 200
+ 1.402 0 1 cbr 50 ------- 0 0.0 1.0 201 201
- 1.402 0 1 cbr 50 ------- 0 0.0 1.0 201 201
r 1.40305 0 1 cbr 50 ------- 0 0.0 1.0 201 201
+ 1.404 0 1 cbr 50 ------- 0 0.0 1.0 202 202
- 1.404 0 1 cbr 50 ------- 0 0.0 1.0 202 202
r 1.40505 0 1 cbr 50 ------- 0 0.0 1.0 202 202
+ 1.406 0 1 cbr 50 ------- 0 0.0 1.0 203 203
- 1.406 0 1 cbr 50 ------- 0 0.0 1.0 203 203
r 1.40705 0 1 cbr 50 ------- 0 0.0 1.0 203 203
+ 1.408 0 1 cbr 50 ------- 0 0.0 1.0 204 204
- 1.408 0 1 cbr 50 ------- 0 0.0 1.0 204 204
r 1.40905 0 1 cbr 50 ------- 0 0.0 1.0 204 204
+ 1.41 0 1 cbr 50 ------- 0 0.0 1.0 205 205
- 1.41 0 1 cbr 50 ------- 0 0.0 1.0 205 205
r 1.41105 0 1 cbr 50 ------- 0 0.0 1.0 205 205
+ 1.412 0 1 cbr 50 ------- 0 0.0 1.0 206 206
- 1.412 0 1 cbr 50 ------- 0 0.0 1.0 206 206
r 1.41305 0 1 cbr 50 ------- 0 0.0 1.0 206 206
+ 1.414 0 1 cbr 50 ------- 0 0.0 1.0 207 207
- 1.414 0 1 cbr 50 ------- 0 0.0 1.0 207 207
r 1.41505 0 1 cbr 50 ------- 0 0.0 1.0 207 207
+ 1.416 0 1 cbr 50 ------- 0 0.0 1.0 208 208
- 1.416 0 1 cbr 50 ------- 0 0.0 1.0 208 208
r 1.41705 0 1 cbr 50 ------- 0 0.0 1.0 208 208
+ 1.418 0 1 cbr 50 ------- 0 0.0 1.0 209 209
- 1.418 0 1 cbr 50 ------- 0 0.0 1.0 209 209
r 1.41905 0 1 cbr 50 ------- 0 0.0 1.0 209 209
+ 1.42 0 1 cbr 50 ------- 0 0.0 1.0 210 210
- 1.42 0 1 cbr 50 ------- 0 0.0 1.0 210 210
r 1.42105 0 1 cbr 50 ------- 0 0.0 1.0 210 210
+ 1.422 0 1 cbr 50 ------- 0 0.0 1.0 211 211
- 1.422 0 1 cbr 50 ------- 0 0.0 1.0 211 211
r 1.42305 0 1 cbr 50 ------- 0 0.0 1.0 211 211
+ 1.424 0 1 cbr 50 ------- 0 0.0 1.0 212 212
- 1.424 0 1 cbr 50 ------- 0 0.0 1.0 212 212
r 1.42505 0 1 cbr 50 ------- 0 0.0 1.0 212 212
+ 1.426 0 1 cbr 50 ------- 0 0.0 1.0 213 213
- 1.426 0 1 cbr 50 ------- 0 0.0 1.0 213 213
r 1.42705 0 1 cbr 50 ------- 0 0.0 1.0 213 213
+ 1.428 0 1 cbr 50 ------- 0 0.0 1.0 214 214
- 1.428 0 1 cbr 50 ------- 0 0.0 1.0 214 214
r 1.42905 0 1 cbr 50 ------- 0 0.0 1.0 214 214
+ 1.43 0 1 cbr 50 ------- 0 0.0 1.0 215 215
- 1.43 0 1 cbr 50 ------- 0 0.0 1.0 215 215
r 1.43105 0 1 cbr 50 ------- 0 0.0 1.0 215 215
+ 1.432 0 1 cbr 50 ------- 0 0.0 1.0 216 216
- 1.432 0 1 cbr 50 ------- 0 0.0 1.0 216 216
r 1.43305 0 1 cbr 50 ------- 0 0.0 1.0 216 216
+ 1.434 0 1 cbr 50 ------- 0 0.0 1.0 217 217
- 1.434 0 1 cbr 50 ------- 0 0.0 1.0 217 217
r 1.43505 0 1 cbr 50 ------- 0 0.0 1.0 217 217
+ 1.436 0 1 cbr 50 ------- 0 0.0 1.0 218 218
- 1.436 0 1 cbr 50 ------- 0 0.0 1.0 218 218
r 1.43705 0 1 cbr 50 ------- 0 0.0 1.0 218 218
+ 1.438 0 1 cbr 50 ------- 0 0.0 1.0 219 219
- 1.438 0 1 cbr 50 ------- 0 0.0 1.0 219 219
r 1.43905 0 1 cbr 50 ------- 0 0.0 1.0 219 219
+ 1.44 0 1 cbr 50 ------- 0 0.0 1.0 220 220
- 1.44 0 1 cbr 50 ------- 0 0.0 1.0 220 220
r 1.44105 0 1 cbr 50 ------- 0 0.0 1.0 220 220
+ 1.442 0 1 cbr 50 ------- 0 0.0 1.0 221 221
- 1.442 0 1 cbr 50 ------- 0 0.0 1.0 221 221
r 1.44305 0 1 cbr 50 ------- 0 0.0 1.0 221 221
+ 1.444 0 1 cbr 50 ------- 0 0.0 1.0 222 222
- 1.444 0 1 cbr 50 ------- 0 0.0 1.0 222 222
r 1.44505 0 1 cbr 50 ------- 0 0.0 1.0 222 222
+ 1.446 0 1 cbr 50 ------- 0 0.0 1.0 223 223
- 1.446 0 1 cbr 50 ------- 0 0.0 1.0 223 223
r 1.44705 0 1 cbr 50 ------- 0 0.0 1.0 223 223
+ 1.448 0 1 cbr 50 ------- 0 0.0 1.0 224 224