V -t * -v 1.0a5 -a 0
A -t * -n 1 -p 0 -o 0x7fffffff -c 30 -a 1
A -t * -h 1 -m 1073741823 -s 0
n -t * -a 0 -s 0 -S UP -v circle -c black -i black
n -t * -a 1 -s 1 -S UP -v circle -c black -i black
l -t * -s 0 -d 1 -S UP -r 8000000 -D 0.001 -c black
+ -t 1 -s 0 -d 1 -p cbr -e 50 -c 0 -i 0 -a 0 -x {0.0 1.0 0 ------- null}
- -t 1 -s 0 -d 1 -p cbr -e 50 -c 0 -i 0 -a 0 -x {0.0 1.0 0 ------- null}
h -t 1 -s 0 -d 1 -p cbr -e 50 -c 0 -i 0 -a 0 -x {0.0 1.0 -1 ------- null}
r -t 1.00105 -s 0 -d 1 -p cbr -e 50 -c 0 -i 0 -a 0 -x {0.0 1.0 0 ------- null}
+ -t 1.002 -s 0 -d 1 -p cbr -e 50 -c 0 -i 1 -a 0 -x {0.0 1.0 1 ------- null}
- -t 1.002 -s 0 -d 1 -p cbr -e 50 -c 0 -i 1 -a 0 -x {0.0 1.0 1 ------- null}
h -t 1.002 -s 0 -d 1 -p cbr -e 50 -c 0 -i 1 -a 0 -x {0.0 1.0 -1 ------- null}
r -t 1.00305 -s 0 -d 1 -p cbr -e 50 -c 0 -i 1 -a 0 -x {0.0 1.0 1 ------- null}
+ -t 1.004 -s 0 -d 1 -p cbr -e 50 -c 0 -i 2 -a 0 -x {0.0 1.0 2 ------- null}
- -t 1.004 -s 0 -d 1 -p cbr -e 50 -c 0 -i 2 -a 0 -x {0.0 1.0 2 ------- null}
h -t 1.004 -s 0 -d 1 -p cbr -e 50 -c 0 -i 2 -a 0 -x {0.0 1.0 -1 ------- null}
r -t 1.00505 -s 0 -d 1 -p cbr -e 50 -c 0 -i 2 -a 0 -x {0.0 1.0 2 ------- null}
+ -t 1.006 -s 0 -d 1 -p cbr -e 50 -c 0 -i 3 -a 0 -x {0.0 1.0 3 ------- null}
- -t 1.006 -s 0 -d 1 -p cbr -e 50 -c 0 -i 3 -a 0 -x {0.0 1.0 3 ------- null}
h -t 1.006 -s 0 -d 1 -p cbr -e 50 -c 0 -i 3 -a 0 -x {0.0 1.0 -1 ------- null}
r -t 1.00705 -s 0 -d 1 -p cbr -e 50 -c 0 -i 3 -a 0 -x {0.0 1.0 3 ------- null}
+ -t 1.008 -s 0 -d 1 -p cbr -e 50 -c 0 -i 4 -a 0 -x {0.0 1.0 4 ------- null}
- -t 1.008 -s 0 -d 1 -p cbr -e 50 -c 0 -i 4 -a 0 -x {0.0 1.0 4 ------- null}
h -t 1.008 -s 0 -d 1 -p cbr -e 50 -c 0 -i 4 -a 0 -x {0.0 1.0 -1 ------- null}
r -t 1.00905 -s 0 -d 1 -p cbr -e 50 -c 0 -i 4 -a 0 -x {0.0 1.0 4 ------- null}
+ -t 1.01 -s 0 -d 1 -p cbr -e 50 -c 0 -i 5 -a 0 -x {0.0 1.0 5 ------- null}
- -t 1.01 -s 0 -d 1 -p cbr -e 50 -c 0 -i 5 -a 0 -x {0.0 1.0 5 ------- null}
h -t 1.01 -s 0 -d 1 -p cbr -e 50 -c 0 -i 5 -a 0 -x {0.0 1.0 -1 ------- null}
r -t 1.01105 -s 0 -d 1 -p cbr -e 50 -c 0 -i 5 -a 0 -x {0.0 1.0 5 ------- null}
+ -t 1.012 -s 0 -d 1 -p cbr -e 50 -c 0 -i 6 -a 0 -x {0.0 1.0 6 ------- null}
- -t 1.012 -s 0 -d 1 -p cbr -e 50 -c 0 -i 6 -a 0 -x {0.0 1.0 6 ------- null}
h -t 1.012 -s 0 -d 1 -p cbr -e 50 -c 0 -i 6 -a 0 -x {0.0 1.0 -1 ------- null}
r -t 1.01305 -s 0 -d 1 -p cbr -e 50 -c 0 -i 6 -a 0 -x {0.0 1.0 6 ------- null}
+ -t 1.014 -s 0 -d 1 -p cbr -e 50 -c 0 -i 7 -a 0 -x {0.0 1.0 7 ------- null}
- -t 1.014 -s 0 -d 1 -p cbr -e 50 -c 0 -i 7 -a 0 -x {0.0 1.0 7 ------- null}
h -t 1.014 -s 0 -d 1 -p cbr -e 50 -c 0 -i 7 -a 0 -x {0.0 1.0 -1 ------- null}
r -t 1.01505 -s 0 -d 1 -p cbr -e 50 -c 0 -i 7 -a 0 -x {0.0 1.0 7 ------- null}
+ -t 1.016 -s 0 -d 1 -p cbr -e 50 -c 0 -i 8 -a 0 -x {0.0 1.0 8 ------- null}
- -t 1.016 -s 0 -d 1 -p cbr -e 50 -c 0 -i 8 -a 0 -x {0.0 1.0 8 ------- null}
h -t 1.016 -s 0 -d 1 -p cbr -e 50 -c 0 -i 8 -a 0 -x {0.0 1.0 -1 ------- null}
r -t 1.01705 -s 0 -d 1 -p cbr -e 50 -c 0 -i 8 -a 0 -x {0.0 1.0 8 ------- null}
+ -t 1.018 -s 0 -d 1 -p cbr -e 50 -c 0 -i 9 -a 0 -x {0.0 1.0 9 ------- null}
- -t 1.018 -s 0 -d 1 -p cbr -e 50 -c 0 -i 9 -a 0 -x {0.0 1.0 9 ------- null}
h -t 1.018 -s 0 -d 1 -p cbr -e 50 -c 0 -i 9 -a 0 -x {0.0 1.0 -1 ------- null}
r -t 1.01905 -s 0 -d 1 -p cbr -e 50 -c 0 -i 9 -a 0 -x {0.0 1.0 9 ------- null}
+ -t 1.02 -s 0 -d 1 -p cbr -e 50 -c 0 -i 10 -a 0 -x {0.0 1.0 10 ------- null}
- -t 1.02 -s 0 -d 1 -p cbr -e 50 -c 0 -i 10 -a 0 -x {0.0 1.0 10 ------- null}
h -t 1.02 -s 0 -d 1 -p cbr -e 50 -c 0 -i 10 -a 0 -x {0.0 1.0 -1 ------- null}
r -t 1.02105 -s 0 -d 1 -p cbr -e 50 -c 0 -i 10 -a 0 -x {0.0 1.0 10 ------- null}
+ -t 1.022 -s 0 -d 1 -p cbr -e 50 -c 0 -i 11 -a 0 -x {0.0 1.0 11 ------- null}
- -t 1.022 -s 0 -d 1 -p cbr -e 50 -c 0 -i 11 -a 0 -x {0.0 1.0 11 ------- null}
h -t 1.022 -s 0 -d 1 -p cbr -e 50 -c 0 -i 11 -a 0 -x {0.0 1.0 -1 ------- null}
r -t 1.02305 -s 0 -d 1 -p cbr -e 50 -c 0 -i 11 -a 0 -x {0.0 1.0 11 ------- null}
+ -t 1.024 -s 0 -d 1 -p cbr -e 50 -c 0 -i 12 -a 0 -x {0.0 1.0 12 ------- null}
- -t 1.024 -s 0 -d 1 -p cbr -e 50 -c 0 -i 12 -a 0 -x {0.0 1.0 12 ------- null}
h -t 1.024 -s 0 -d 1 -p cbr -e 50 -c 0 -i 12 -a 0 -x {0.0 1.0 -1 ------- null}
r -t 1.02505 -s 0 -d 1 -p cbr -e 50 -c 0 -i 12 -a 0 -x {0.0 1.0 12 ------- null}
+ -t 1.026 -s 0 -d 1 -p cbr -e 50 -c 0 -i 13 -a 0 -x {0.0 1.0 13 ------- null}
- -t 1.026 -s 0 -d 1 -p cbr -e 50 -c 0 -i 13 -a 0 -x {0.0 1.0 13 ------- null}
h -t 1.026 -s 0 -d 1 -p cbr -e 50 -c 0 -i 13 -a 0 -x {0.0 1.0 -1 ------- null}
r -t 1.02705 -s 0 -d 1 -p cbr -e 50 -c 0 -i 13 -a 0 -x {0.0 1.0 13 ------- null}
+ -t 1.028 -s 0 -d 1 -p cbr -e 50 -c 0 -i 14 -a 0 -x {0.0 1.0 14 ------- null}
- -t 1.028 -s 0 -d 1 -p cbr -e 50 -c 0 -i 14 -a 0 -x {0.0 1.0 14 ------- null}
h -t 1.028 -s 0 -d 1 -p cbr -e 50 -c 0 -i 14 -a 0 -x {0.0 1.0 -1 ------- null}
r -t 1.02905 -s 0 -d 1 -p cbr -e 50 -c 0 -i 14 -a 0 -x {0.0 1.0 14 ------- null}
+ -t 1.03 -s 0 -d 1 -p cbr -e 50 -c 0 -i 15 -a 0 -x {0.0 1.0 15 ------- null}
- -t 1.03 -s 0 -d 1 -p cbr -e 50 -c 0 -i 15 -a 0 -x {0.0 1.0 15 ------- null}
h -t 1.03 -s 0 -d 1 -p cbr -e 50 -c 0 -i 15 -a 0 -x {0.0 1.0 -1 ------- null}
r -t 1.03105 -s 0 -d 1 -p cbr -e 50 -c 0 -i 15 -a 0 -x {0.0 1.0 15 ------- null}
+ -t 1.032 -s 0 -d 1 -p cbr -e 50 -c 0 -i 16 -a 0 -x {0.0 1.0 16 ------- null}
- -t 1.032 -s 0 -d 1 -p cbr -e 50 -c 0 -i 16 -a 0 -x {0.0 1.0 16 ------- null}
h -t 1.032 -s 0 -d 1 -p cbr -e 50 -c 0 -i 16 -a 0 -x {0.0 1.0 -1 ------- null}
r -t 1.03305 -s 0 -d 1 -p cbr -e 50 -c 0 -i 16 -a 0 -x {0.0 1.0 16 ------- null}
+ -t 1.034 -s 0 -d 1 -p cbr -e 50 -c 0 -i 17 -a 0 -x {0.0 1.0 17 ------- null}
- -t 1.034 -s 0 -d 1 -p cbr -e 50 -c 0 -i 17 -a 0 -x {0.0 1.0 17 ------- null}
h -t 1.034 -s 0 -d 1 -p cbr -e 50 -c 0 -i 17 -a 0 -x {0.0 1.0 -1 ------- null}
r -t 1.03505 -s 0 -d 1 -p cbr -e 50 -c 0 -i 17 -a 0 -x {0.0 1.0 17 ------- null}
+ -t 1.036 -s 0 -d 1 -p cbr -e 50 -c 0 -i 18 -a 0 -x {0.0 1.0 18 ------- null}
- -t 1.036 -s 0 -d 1 -p cbr -e 50 -c 0 -i 18 -a 0 -x {0.0 1.0 18 ------- null}
h -t 1.036 -s 0 -d 1 -p cbr -e 50 -c 0 -i 18 -a 0 -x {0.0 1.0 -1 ------- null}
r -t 1.03705 -s 0 -d 1 -p cbr -e 50 -c 0 -i 18 -a 0 -x {0.0 1.0 18 ------- null}
+ -t 1.038 -s 0 -d 1 -p cbr -e 50 -c 0 -i 19 -a 0 -x {0.0 1.0 19 ------- null}
- -t 1.038 -s 0 -d 1 -p cbr -e 50 -c 0 -i 19 -a 0 -x {0.0 1.0 19 ------- null}
h -t 1.038 -s 0 -d 1 -p cbr -e 50 -c 0 -i 19 -a 0 -x {0.0 1.0 -1 ------- null}
r -t 1.03905 -s 0 -d 1 -p cbr -e 50 -c 0 -i 19 -a 0 -x {0.0 1.0 19 ------- null}
+ -t 1.04 -s 0 -d 1 -p cbr -e 50 -c 0 -i 20 -a 0 -x {0.0 1.0 20 ------- null}
- -t 1.04 -s 0 -d 1 -p cbr -e 50 -c 0 -i 20 -a 0 -x {0.0 1.0 20 ------- null}
h -t 1.04 -s 0 -d 1 -p cbr -e 50 -c 0 -i 20 -a 0 -x {0.0 1.0 -1 ------- null}
r -t 1.04105 -s 0 -d 1 -p cbr -e 50 -c 0 -i 20 -a 0 -x {0.0 1.0 20 ------- null}
+ -t 1.042 -s 0 -d 1 -p cbr -e 50 -c 0 -i 21 -a 0 -x {0.0 1.0 21 ------- null}
- -t 1.042 -s 0 -d 1 -p cbr -e 50 -c 0 -i 21 -a 0 -x {0.0 1.0 21 ------- null}
h -t 1.042 -s 0 -d 1 -p cbr -e 50 -c 0 -i 21 -a 0 -x {0.0 1.0 -1 ------- null}
r -t 1.04305 -s 0 -d 1 -p cbr -e 50 -c 0 -i 21 -a 0 -x {0.0 1.0 21 ------- null}
+ -t 1.044 -s 0 -d 1 -p cbr -e 50 -c 0 -i 22 -a 0 -x {0.0 1.0 22 ------- null}
- -t 1.044 -s 0 -d 1 -p cbr -e 50 -c 0 -i 22 -a 0 -x {0.0 1.0 22 ------- null}
h -t 1.044 -s 0 -d 1 -p cbr -e 50 -c 0 -i 22 -a 0 -x {0.0 1.0 -1 ------- null}
r -t 1.04505 -s 0 -d 1 -p cbr -e 50 -c 0 -i 22 -a 0 -x {0.0 1.0 22 ------- null}
+ -t 1.046 -s 0 -d 1 -p cbr -e 50 -c 0 -i 23 -a 0 -x {0.0 1.0 23 ------- null}
- -t 1.046 -s 0 -d 1 -p cbr -e 50 -c 0 -i 23 -a 0 -x {0.0 1.0 23 ------- null}
h -t 1.046 -s 0 -d 1 -p cbr -e 50 -c 0 -i 23 -a 0 -x {0.0 1.0 -1 ------- null}
r -t 1.04705 -s 0 -d 1 -p cbr -e 50 -c 0 -i 23 -a 0 -x {0.0 1.0 23 ------- null}
+ -t 1.048 -s 0 -d 1 -p cbr -e 50 -c 0 -i 24 -a 0 -x {0.0 1.0 24 ------- null}
- -t 1.048 -s 0 -d 1 -p cbr -e 50 -c 0 -i 24 -a 0 -x {0.0 1.0 24 ------- null}
h -t 1.048 -s 0 -d 1 -p cbr -e 50 -c 0 -i 24 -a 0 -x {0.0 1.0 -1 ------- null}
r -t 1.04905 -s 0 -d 1 -p cbr -e 50 -c 0 -i 24 -a 0 -x {0.0 1.0 24 ------- null}
+ -t 1.05 -s 0 -d 1 -p cbr -e 50 -c 0 -i 25 -a 0 -x {0.0 1.0 25 ------- null}
- -t 1.05 -s 0 -d 1 -p cbr -e 50 -c 0 -i 25 -a 0 -x {0.0 1.0 25 ------- null}
h -t 1.05 -s 0 -d 1 -p cbr -e 50 -c 0 -i 25 -a 0 -x {0.0 1.0 -1 ------- null}
r -t 1.05105 -s 0 -d 1 -p cbr -e 50 -c 0 -i 25 -a 0 -x {0.0 1.0 25 ------- null}
+ -t 1.052 -s 0 -d 1 -p cbr -e 50 -c 0 -i 26 -a 0 -x {0.0 1.0 26 ------- null}
- -t 1.052 -s 0 -d 1 -p cbr -e 50 -c 0 -i 26 -a 0 -x {0.0 1.0 26 ------- null}
h -t 1.052 -s 0 -d 1 -p cbr -e 50 -c 0 -i 26 -a 0 -x {0.0 1.0 -1 ------- null}
r -t 1.05305 -s 0 -d 1 -p cbr -e 50 -c 0 -i 26 -a 0 -x {0.0 1.0 26 ------- null}
+ -t 1.054 -s 0 -d 1 -p cbr -e 50 -c 0 -i 27 -a 0 -x {0.0 1.0 27 ------- null}
- -t 1.054 -s 0 -d 1 -p cbr -e 50 -c 0 -i 27 -a 0 -x {0.0 1.0 27 ------- null}
h -t 1.054 -s 0 -d 1 -p cbr -e 50 -c 0 -i 27 -a 0 -x {0.0 1.0 -1 ------- null}
r -t 1.05505 -s 0 -d 1 -p cbr -e 50 -c 0 -i 27 -a 0 -x {0.0 1.0 27 ------- null}
+ -t 1.056 -s 0 -d 1 -p cbr -e 50 -c 0 -i 28 -a 0 -x {0.0 1.0 28 ------- null}
- -t 1.056 -s 0 -d 1 -p cbr -e 50 -c 0 -i 28 -a 0 -x {0.0 1.0 28 ------- null}
h -t 1.056 -s 0 -d 1 -p cbr -e 50 -c 0 -i 28 -a 0 -x {0.0 1.0 -1 ------- null}
r -t 1.05705 -s 0 -d 1 -p cbr -e 50 -c 0 -i 28 -a 0 -x {0.0 1.0 28 ------- null}
+ -t 1.058 -s 0 -d 1 -p cbr -e 50 -c 0 -i 29 -a 0 -x {0.0 1.0 29 ------- null}
- -t 1.058 -s 0 -d 1 -p cbr -e 50 -c 0 -i 29 -a 0 -x {0.0 1.0 29 ------- null}
h -t 1.058 -s 0 -d 1 -p cbr -e 50 -c 0 -i 29 -a 0 -x {0.0 1.0 -1 ------- null}
r -t 1.05905 -s 0 -d 1 -p cbr -e 50 -c 0 -i 29 -a 0 -x {0.0 1.0 29 ------- null}
+ -t 1.06 -s 0 -d 1 -p cbr -e 50 -c 0 -i 30 -a 0 -x {0.0 1.0 30 ------- null}
- -t 1.06 -s 0 -d 1 -p cbr -e 50 -c 0 -i 30 -a 0 -x {0.0 1.0 30 ------- null}
h -t 1.06 -s 0 -d 1 -p cbr -e 50 -c 0 -i 30 -a 0 -x {0.0 1.0 -1 ------- null}
r -t 1.06105 -s 0 -d 1 -p cbr -e 50 -c 0 -i 30 -a 0 -x {0.0 1.0 30 ------- null}
+ -t 1.062 -s 0 -d 1 -p cbr -e 50 -c 0 -i 31 -a 0 -x {0.0 1.0 31 ------- null}
- -t 1.062 -s 0 -d 1 -p cbr -e 50 -c 0 -i 31 -a 0 -x {0.0 1.0 31 ------- null}
h -t 1.062 -s 0 -d 1 -p cbr -e 50 -c 0 -i 31 -a 0 -x {0.0 1.0 -1 ------- null}
r -t 1.06305 -s 0 -d 1 -p cbr -e 50 -c 0 -i 31 -a 0 -x {0.0 1.0 31 ------- null}
+ -t 1.064 -s 0 -d 1 -p cbr -e 50 -c 0 -i 32 -a 0 -x {0.0 1.0 32 ------- null}
- -t 1.064 -s 0 -d 1 -p cbr -e 50 -c 0 -i 32 -a 0 -x {0.0 1.0 32 ------- null}
h -t 1.064 -s 0 -d 1 -p cbr -e 50 -c 0 -i 32 -a 0 -x {0.0 1.0 -1 ------- null}
r -t 1.06505 -s 0 -d 1 -p cbr -e 50 -c 0 -i 32 -a 0 -x {0.0 1.0 32 ------- null}
+ -t 1.066 -s 0 -d 1 -p cbr -e 50 -c 0 -i 33 -a 0 -x {0.0 1.0 33 ------- null}
- -t 1.066 -s 0 -d 1 -p cbr -e 50 -c 0 -i 33 -a 0 -x {0.0 1.0 33 ------- null}
h -t 1.066 -s 0 -d 1 -p cbr -e 50 -c 0 -i 33 -a 0 -x {0.0 1.0 -1 ------- null}
r -t 1.06705 -s 0 -d 1 -p cbr -e 50 -c 0 -i 33 -a 0 -x {0.0 1.0 33 ------- null}
+ -t 1.068 -s 0 -d 1 -p cbr -e 50 -c 0 -i 34 -a 0 -x {0.0 1.0 34 ------- null}
- -t 1.068 -s 0 -d 1 -p cbr -e 50 -c 0 -i 34 -a 0 -x {0.0 1.0 34 ------- null}
h -t 1.068 -s 0 -d 1 -p cbr -e 50 -c 0 -i 34 -a 0 -x {0.0 1.0 -1 ------- null}
r -t 1.06905 -s 0 -d 1 -p cbr -e 50 -c 0 -i 34 -a 0 -x {0.0 1.0 34 ------- null}
+ -t 1.07 -s 0 -d 1 -p cbr -e 50 -c 0 -i 35 -a 0 -x {0.0 1.0 35 ------- null}
- -t 1.07 -s 0 -d 1 -p cbr -e 50 -c 0 -i 35 -a 0 -x {0.0 1.0 35 ------- null}
h -t 1.07 -s 0 -d 1 -p cbr -e 50 -c 0 -i 35 -a 0 -x {0.0 1.0 -1 ------- null}
r -t 1.07105 -s 0 -d 1 -p cbr -e 50 -c 0 -i 35 -a 0 -x {0.0 1.0 35 ------- null}
+ -t 1.072 -s 0 -d 1 -p cbr -e 50 -c 0 -i 36 -a 0 -x {0.0 1.0 36 ------- null}
- -t 1.072 -s 0 -d 1 -p cbr -e 50 -c 0 -i 36 -a 0 -x {0.0 1.0 36 ------- null}
h -t 1.072 -s 0 -d 1 -p cbr -e 50 -c 0 -i 36 -a 0 -x {0.0 1.0 -1 ------- null}
r -t 1.07305 -s 0 -d 1 -p cbr -e 50 -c 0 -i 36 -a 0 -x {0.0 1.0 36 ------- null}
+ -t 1.074 -s 0 -d 1 -p cbr -e 50 -c 0 -i 37 -a 0 -x {0.0 1.0 37 ------- null}
- -t 1.074 -s 0 -d 1 -p cbr -e 50 -c 0 -i 37 -a 0 -x {0.0 1.0 37 ------- null}
h -t 1.074 -s 0 -d 1 -p cbr -e 50 -c 0 -i 37 -a 0 -x {0.0 1.0 -1 ------- null}
r -t 1.07505 -s 0 -d 1 -p cbr -e 50 -c 0 -i 37 -a 0 -x {0.0 1.0 37 ------- null}
+ -t 1.076 -s 0 -d 1 -p cbr -e 50 -c 0 -i 38 -a 0 -x {0.0 1.0 38 ------- null}
- -t 1.076 -s 0 -d 1 -p cbr -e 50 -c 0 -i 38 -a 0 -x {0.0 1.0 38 ------- null}
h -t 1.076 -s 0 -d 1 -p cbr -e 50 -c 0 -i 38 -a 0 -x {0.0 1.0 -1 ------- null}
r -t 1.07705 -s 0 -d 1 -p cbr -e 50 -c 0 -i 38 -a 0 -x {0.0 1.0 38 ------- null}
+ -t 1.078 -s 0 -d 1 -p cbr -e 50 -c 0 -i 39 -a 0 -x {0.0 1.0 39 ------- null}
- -t 1.078 -s 0 -d 1 -p cbr -e 50 -c 0 -i 39 -a 0 -x {0.0 1.0 39 ------- null}
h -t 1.078 -s 0 -d 1 -p cbr -e 50 -c 0 -i 39 -a 0 -x {0.0 1.0 -1 ------- null}
r -t 1.07905 -s 0 -d 1 -p cbr -e 50 -c 0 -i 39 -a 0 -x {0.0 1.0 39 ------- null}
+ -t 1.08 -s 0 -d 1 -p cbr -e 50 -c 0 -i 40 -a 0 -x {0.0 1.0 40 ------- null}
- -t 1.08 -s 0 -d 1 -p cbr -e 50 -c 0 -i 40 -a 0 -x {0.0 1.0 40 ------- null}
h -t 1.08 -s 0 -d 1 -p cbr -e 50 -c 0 -i 40 -a 0 -x {0.0 1.0 -1 ------- null}
r -t 1.08105 -s 0 -d 1 -p cbr -e 50 -c 0 -i 40 -a 0 -x {0.0 1.0 40 ------- null}
+ -t 1.082 -s 0 -d 1 -p cbr -e 50 -c 0 -i 41 -a 0 -x {0.0 1.0 41 ------- null}
- -t 1.082 -s 0 -d 1 -p cbr -e 50 -c 0 -i 41 -a 0 -x {0.0 1.0 41 ------- null}
h -t 1.082 -s 0 -d 1 -p cbr -e 50 -c 0 -i 41 -a 0 -x {0.0 1.0 -1 ------- null}
r -t 1.08305 -s 0 -d 1 -p cbr -e 50 -c 0 -i 41 -a 0 -x {0.0 1.0 41 ------- null}
+ -t 1.084 -s 0 -d 1 -p cbr -e 50 -c 0 -i 42 -a 0 -x {0.0 1.0 42 ------- null}
- -t 1.084 -s 0 -d 1 -p cbr -e 50 -c 0 -i 42 -a 0 -x {0.0 1.0 42 ------- null}
h -t 1.084 -s 0 -d 1 -p cbr -e 50 -c 0 -i 42 -a 0 -x {0.0 1.0 -1 ------- null}
r -t 1.08505 -s 0 -d 1 -p cbr -e 50 -c 0 -i 42 -a 0 -x {0.0 1.0 42 ------- null}
+ -t 1.086 -s 0 -d 1 -p cbr -e 50 -c 0 -i 43 -a 0 -x {0.0 1.0 43 ------- null}
- -t 1.086 -s 0 -d 1 -p cbr -e 50 -c 0 -i 43 -a 0 -x {0.0 1.0 43 ------- null}
h -t 1.086 -s 0 -d 1 -p cbr -e 50 -c 0 -i 43 -a 0 -x {0.0 1.0 -1 ------- null}
r -t 1.08705 -s 0 -d 1 -p cbr -e 50 -c 0 -i 43 -a 0 -x {0.0 1.0 43 ------- null}
+ -t 1.088 -s 0 -d 1 -p cbr -e 50 -c 0 -i 44 -a 0 -x {0.0 1.0 44 ------- null}
- -t 1.088 -s 0 -d 1 -p cbr -e 50 -c 0 -i 44 -a 0 -x {0.0 1.0 44 ------- null}
h -t 1.088 -s 0 -d 1 -p cbr -e 50 -c 0 -i 44 -a 0 -x {0.0 1.0 -1 ------- null}
r -t 1.08905 -s 0 -d 1 -p cbr -e 50 -c 0 -i 44 -a 0 -x {0.0 1.0 44 ------- null}
+ -t 1.09 -s 0 -d 1 -p cbr -e 50 -c 0 -i 45 -a 0 -x {0.0 1.0 45 ------- null}
- -t 1.09 -s 0 -d 1 -p cbr -e 50 -c 0 -i 45 -a 0 -x {0.0 1.0 45 ------- null}
h -t 1.09 -s 0 -d 1 -p cbr -e 50 -c 0 -i 45 -a 0 -x {0.0 1.0 -1 ------- null}
r -t 1.09105 -s 0 -d 1 -p cbr -e 50 -c 0 -i 45 -a 0 -x {0.0 1.0 45 ------- null}
+ -t 1.092 -s 0 -d 1 -p cbr -e 50 -c 0 -i 46 -a 0 -x {0.0 1.0 46 ------- null}
- -t 1.092 -s 0 -d 1 -p cbr -e 50 -c 0 -i 46 -a 0 -x {0.0 1.0 46 ------- null}
h -t 1.092 -s 0 -d 1 -p cbr -e 50 -c 0 -i 46 -a 0 -x {0.0 1.0 -1 ------- null}
r -t 1.09305 -s 0 -d 1 -p cbr -e 50 -c 0 -i 46 -a 0 -x {0.0 1.0 46 ------- null}
+ -t 1.094 -s 0 -d 1 -p cbr -e 50 -c 0 -i 47 -a 0 -x {0.0 1.0 47 ------- null}
- -t 1.094 -s 0 -d 1 -p cbr -e 50 -c 0 -i 47 -a 0 -x {0.0 1.0 47 ------- null}
h -t 1.094 -s 0 -d 1 -p cbr -e 50 -c 0 -i 47 -a 0 -x {0.0 1.0 -1 ------- null}
r -t 1.09505 -s 0 -d 1 -p cbr -e 50 -c 0 -i 47 -a 0 -x {0.0 1.0 47 ------- null}
+ -t 1.096 -s 0 -d 1 -p cbr -e 50 -c 0 -i 48 -a 0 -x {0.0 1.0 48 ------- null}
- -t 1.096 -s 0 -d 1 -p cbr -e 50 -c 0 -i 48 -a 0 -x {0.0 1.0 48 ------- null}
h -t 1.096 -s 0 -d 1 -p cbr -e 50 -c 0 -i 48 -a 0 -x {0.0 1.0 -1 ------- null}
r -t 1.09705 -s 0 -d 1 -p cbr -e 50 -c 0 -i 48 -a 0 -x {0.0 1.0 48 ------- null}
+ -t 1.098 -s 0 -d 1 -p cbr -e 50 -c 0 -i 49 -a 0 -x {0.0 1.0 49 ------- null}
- -t 1.098 -s 0 -d 1 -p cbr -e 50 -c 0 -i 49 -a 0 -x {0.0 1.0 49 ------- null}
h -t 1.098 -s 0 -d 1 -p cbr -e 50 -c 0 -i 49 -a 0 -x {0.0 1.0 -1 ------- null}
r -t 1.09905 -s 0 -d 1 -p cbr -e 50 -c 0 -i 49 -a 0 -x {0.0 1.0 49 ------- null}
+ -t 1.1 -s 0 -d 1 -p cbr -e 50 -c 0 -i 50 -a 0 -x {0.0 1.0 50 ------- null}
- -t 1.1 -s 0 -d 1 -p cbr -e 50 -c 0 -i 50 -a 0 -x {0.0 1.0 50 ------- null}
h -t 1.1 -s 0 -d 1 -p cbr -e 50 -c 0 -i 50 -a 0 -x {0.0 1.0 -1 ------- null}
r -t 1.10105 -s 0 -d 1 -p cbr -e 50 -c 0 -i 50 -a 0 -x {0.0 1.0 50 ------- null}
+ -t 1.102 -s 0 -d 1 -p cbr -e 50 -c 0 -i 51 -a 0 -x {0.0 1.0 51 ------- null}
- -t 1.102 -s 0 -d 1 -p cbr -e 50 -c 0 -i 51 -a 0 -x {0.0 1.0 51 ------- null}
h -t 1.102 -s 0 -d 1 -p cbr -e 50 -c 0 -i 51 -a 0 -x {0.0 1.0 -1 ------- null}
r -t 1.10305 -s 0 -d 1 -p cbr -e 50 -c 0 -i 51 -a 0 -x {0.0 1.0 51 ------- null}
+ -t 1.104 -s 0 -d 1 -p cbr -e 50 -c 0 -i 52 -a 0 -x {0.0 1.0 52 ------- null}
- -t 1.104 -s 0 -d 1 -p cbr -e 50 -c 0 -i 52 -a 0 -x {0.0 1.0 52 ------- null}
h -t 1.104 -s 0 -d 1 -p cbr -e 50 -c 0 -i 52 -a 0 -x {0.0 1.0 -1 ------- null}
r -t 1.10505 -s 0 -d 1 -p cbr -e 50 -c 0 -i 52 -a 0 -x {0.0 1.0 52 ------- null}
+ -t 1.106 -s 0 -d 1 -p cbr -e 50 -c 0 -i 53 -a 0 -x {0.0 1.0 53 ------- null}
- -t 1.106 -s 0 -d 1 -p cbr -e 50 -c 0 -i 53 -a 0 -x {0.0 1.0 53 ------- null}
h -t 1.106 -s 0 -d 1 -p cbr -e 50 -c 0 -i 53 -a 0 -x {0.0 1.0 -1 ------- null}
r -t 1.10705 -s 0 -d 1 -p cbr -e 50 -c 0 -i 53 -a 0 -x {0.0 1.0 53 ------- null}
+ -t 1.108 -s 0 -d 1 -p cbr -e 50 -c 0 -i 54 -a 0 -x {0.0 1.0 54 ------- null}
- -t 1.108 -s 0 -d 1 -p cbr -e 50 -c 0 -i 54 -a 0 -x {0.0 1.0 54 ------- null}
h -t 1.108 -s 0 -d 1 -p cbr -e 50 -c 0 -i 54 -a 0 -x {0.0 1.0 -1 ------- null}
r -t 1.10905 -s 0 -d 1 -p cbr -e 50 -c 0 -i 54 -a 0 -x {0.0 1.0 54 ------- null}
+ -t 1.11 -s 0 -d 1 -p cbr -e 50 -c 0 -i 55 -a 0 -x {0.0 1.0 55 ------- null}
- -t 1.11 -s 0 -d 1 -p cbr -e 50 -c 0 -i 55 -a 0 -x {0.0 1.0 55 ------- null}
h -t 1.11 -s 0 -d 1 -p cbr -e 50 -c 0 -i 55 -a 0 -x {0.0 1.0 -1 ------- null}
r -t 1.11105 -s 0 -d 1 -p cbr -e 50 -c 0 -i 55 -a 0 -x {0.0 1.0 55 ------- null}
+ -t 1.112 -s 0 -d 1 -p cbr -e 50 -c 0 -i 56 -a 0 -x {0.0 1.0 56 ------- null}
- -t 1.112 -s 0 -d 1 -p cbr -e 50 -c 0 -i 56 -a 0 -x {0.0 1.0 56 ------- null}
h -t 1.112 -s 0 -d 1 -p cbr -e 50 -c 0 -i 56 -a 0 -x {0.0 1.0 -1 ------- null}
r -t 1.11305 -s 0 -d 1 -p cbr -e 50 -c 0 -i 56 -a 0 -x {0.0 1.0 56 ------- null}
+ -t 1.114 -s 0 -d 1 -p cbr -e 50 -c 0 -i 57 -a 0 -x {0.0 1.0 57 ------- null}
- -t 1.114 -s 0 -d 1 -p cbr -e 50 -c 0 -i 57 -a 0 -x {0.0 1.0 57 ------- null}
h -t 1.114 -s 0 -d 1 -p cbr -e 50 -c 0 -i 57 -a 0 -x {0.0 1.0 -1 ------- null}
r -t 1.11505 -s 0 -d 1 -p cbr -e 50 -c 0 -i 57 -a 0 -x {0.0 1.0 57 ------- null}
+ -t 1.116 -s 0 -d 1 -p cbr -e 50 -c 0 -i 58 -a 0 -x {0.0 1.0 58 ------- null}
- -t 1.116 -s 0 -d 1 -p cbr -e 50 -c 0 -i 58 -a 0 -x {0.0 1.0 58 ------- null}
h -t 1.116 -s 0 -d 1 -p cbr -e 50 -c 0 -i 58 -a 0 -x {0.0 1.0 -1 ------- null}
r -t 1.11705 -s 0 -d 1 -p cbr -e 50 -c 0 -i 58 -a 0 -x {0.0 1.0 58 ------- null}
+ -t 1.118 -s 0 -d 1 -p cbr -e 50 -c 0 -i 59 -a 0 -x {0.0 1.0 59 ------- null}
- -t 1.118 -s 0 -d 1 -p cbr -e 50 -c 0 -i 59 -a 0 -x {0.0 1.0 59 ------- null}
h -t 1.118 -s 0 -d 1 -p cbr -e 50 -c 0 -i 59 -a 0 -x {0.0 1.0 -1 ------- null}
r -t 1.11905 -s 0 -d 1 -p cbr -e 50 -c 0 -i 59 -a 0 -x {0.0 1.0 59 ------- null}
+ -t 1.12 -s 0 -d 1 -p cbr -e 50 -c 0 -i 60 -a 0 -x {0.0 1.0 60 ------- null}
- -t 1.12 -s 0 -d 1 -p cbr -e 50 -c 0 -i 60 -a 0 -x {0.0 1.0 60 ------- null}
h -t 1.12 -s 0 -d 1 -p cbr -e 50 -c 0 -i 60 -a 0 -x {0.0 1.0 -1 ------- null}
r -t 1.12105 -s 0 -d 1 -p cbr -e 50 -c 0 -i 60 -a 0 -x {0.0 1.0 60 ------- null}
+ -t 1.122 -s 0 -d 1 -p cbr -e 50 -c 0 -i 61 -a 0 -x {0.0 1.0 61 ------- null}
- -t 1.122 -s 0 -d 1 -p cbr -e 50 -c 0 -i 61 -a 0 -x {0.0 1.0 61 ------- null}
h -t 1.122 -s 0 -d 1 -p cbr -e 50 -c 0 -i 61 -a 0 -x {0.0 1.0 -1 ------- null}
r -t 1.12305 -s 0 -d 1 -p cbr -e 50 -c 0 -i 61 -a 0 -x {0.0 1.0 61 ------- null}
+ -t 1.124 -s 0 -d 1 -p cbr -e 50 -c 0 -i 62 -a 0 -x {0.0 1.0 62 ------- null}
- -t 1.124 -s 0 -d 1 -p cbr -e 50 -c 0 -i 62 -a 0 -x {0.0 1.0 62 ------- null}
h -t 1.124 -s 0 -d 1 -p cbr -e 50 -c 0 -i 62 -a 0 -x {0.0 1.0 -1 ------- null}
r -t 1.12505 -s 0 -d 1 -p cbr -e 50 -c 0 -i 62 -a 0 -x {0.0 1.0 62 ------- null}
+ -t 1.126 -s 0 -d 1 -p cbr -e 50 -c 0 -i 63 -a 0 -x {0.0 1.0 63 ------- null}
- -t 1.126 -s 0 -d 1 -p cbr -e 50 -c 0 -i 63 -a 0 -x {0.0 1.0 63 ------- null}
h -t 1.126 -s 0 -d 1 -p cbr -e 50 -c 0 -i 63 -a 0 -x {0.0 1.0 -1 ------- null}
r -t 1.12705 -s 0 -d 1 -p cbr -e 50 -c 0 -i 63 -a 0 -x {0.0 1.0 63 ------- null}
+ -t 1.128 -s 0 -d 1 -p cbr -e 50 -c 0 -i 64 -a 0 -x {0.0 1.0 64 ------- null}
- -t 1.128 -s 0 -d 1 -p cbr -e 50 -c 0 -i 64 -a 0 -x {0.0 1.0 64 ------- null}
h -t 1.128 -s 0 -d 1 -p cbr -e 50 -c 0 -i 64 -a 0 -x {0.0 1.0 -1 ------- null}
r -t 1.12905 -s 0 -d 1 -p cbr -e 50 -c 0 -i 64 -a 0 -x {0.0 1.0 64 ------- null}
+ -t 1.13 -s 0 -d 1 -p cbr -e 50 -c 0 -i 65 -a 0 -x {0.0 1.0 65 ------- null}
- -t 1.13 -s 0 -d 1 -p cbr -e 50 -c 0 -i 65 -a 0 -x {0.0 1.0 65 ------- null}
h -t 1.13 -s 0 -d 1 -p cbr -e 50 -c 0 -i 65 -a 0 -x {0.0 1.0 -1 ------- null}
r -t 1.13105 -s 0 -d 1 -p cbr -e 50 -c 0 -i 65 -a 0 -x {0.0 1.0 65 ------- null}
+ -t 1.132 -s 0 -d 1 -p cbr -e 50 -c 0 -i 66 -a 0 -x {0.0 1.0 66 ------- null}
- -t 1.132 -s 0 -d 1 -p cbr -e 50 -c 0 -i 66 -a 0 -x {0.0 1.0 66 ------- null}
h -t 1.132 -s 0 -d 1 -p cbr -e 50 -c 0 -i 66 -a 0 -x {0.0 1.0 -1 ------- null}
r -t 1.13305 -s 0 -d 1 -p cbr -e 50 -c 0 -i 66 -a 0 -x {0.0 1.0 66 ------- null}
+ -t 1.134 -s 0 -d 1 -p cbr -e 50 -c 0 -i 67 -a 0 -x {0.0 1.0 67 ------- null}
- -t 1.134 -s 0 -d 1 -p cbr -e 50 -c 0 -i 67 -a 0 -x {0.0 1.0 67 ------- null}
h -t 1.134 -s 0 -d 1 -p cbr -e 50 -c 0 -i 67 -a 0 -x {0.0 1.0 -1 ------- null}
r -t 1.13505 -s 0 -d 1 -p cbr -e 50 -c 0 -i 67 -a 0 -x {0.0 1.0 67 ------- null}
+ -t 1.136 -s 0 -d 1 -p cbr -e 50 -c 0 -i 68 -a 0 -x {0.0 1.0 68 ------- null}
- -t 1.136 -s 0 -d 1 -p cbr -e 50 -c 0 -i 68 -a 0 -x {0.0 1.0 68 ------- null}
h -t 1.136 -s 0 -d 1 -p cbr -e 50 -c 0 -i 68 -a 0 -x {0.0 1.0 -1 ------- null}
r -t 1.13705 -s 0 -d 1 -p cbr -e 50 -c 0 -i 68 -a 0 -x {0.0 1.0 68 ------- null}
+ -t 1.138 -s 0 -d 1 -p cbr -e 50 -c 0 -i 69 -a 0 -x {0.0 1.0 69 ------- null}
- -t 1.138 -s 0 -d 1 -p cbr -e 50 -c 0 -i 69 -a 0 -x {0.0 1.0 69 ------- null}
h -t 1.138 -s 0 -d 1 -p cbr -e 50 -c 0 -i 69 -a 0 -x {0.0 1.0 -1 ------- null}
r -t 1.13905 -s 0 -d 1 -p cbr -e 50 -c 0 -i 69 -a 0 -x {0.0 1.0 69 ------- null}
+ -t 1.14 -s 0 -d 1 -p cbr -e 50 -c 0 -i 70 -a 0 -x {0.0 1.0 70 ------- null}
- -t 1.14 -s 0 -d 1 -p cbr -e 50 -c 0 -i 70 -a 0 -x {0.0 1.0 70 ------- null}
h -t 1.14 -s 0 -d 1 -p cbr -e 50 -c 0 -i 70 -a 0 -x {0.0 1.0 -1 ------- null}
r -t 1.14105 -s 0 -d 1 -p cbr -e 50 -c 0 -i 70 -a 0 -x {0.0 1.0 70 ------- null}
+ -t 1.142 -s 0 -d 1 -p cbr -e 50 -c 0 -i 71 -a 0 -x {0.0 1.0 71 ------- null}
- -t 1.142 -s 0 -d 1 -p cbr -e 50 -c 0 -i 71 -a 0 -x {0.0 1.0 71 ------- null}
h -t 1.142 -s 0 -d 1 -p cbr -e 50 -c 0 -i 71 -a 0 -x {0.0 1.0 -1 ------- null}
r -t 1.14305 -s 0 -d 1 -p cbr -e 50 -c 0 -i 71 -a 0 -x {0.0 1.0 71 ------- null}
+ -t 1.144 -s 0 -d 1 -p cbr -e 50 -c 0 -i 72 -a 0 -x {0.0 1.0 72 ------- null}
- -t 1.144 -s 0 -d 1 -p cbr -e 50 -c 0 -i 72 -a 0 -x {0.0 1.0 72 ------- null}
h -t 1.144 -s 0 -d 1 -p cbr -e 50 -c 0 -i 72 -a 0 -x {0.0 1.0 -1 ------- null}
r -t 1.14505 -s 0 -d 1 -p cbr -e 50 -c 0 -i 72 -a 0 -x {0.0 1.0 72 ------- null}
+ -t 1.146 -s 0 -d 1 -p cbr -e 50 -c 0 -i 73 -a 0 -x {0.0 1.0 73 ------- null}
- -t 1.146 -s 0 -d 1 -p cbr -e 50 -c 0 -i 73 -a 0 -x {0.0 1.0 73 ------- null}
h -t 1.146 -s 0 -d 1 -p cbr -e 50 -c 0 -i 73 -a 0 -x {0.0 1.0 -1 ------- null}
r -t 1.14705 -s 0 -d 1 -p cbr -e 50 -c 0 -i 73 -a 0 -x {0.0 1.0 73 ------- null}
+ -t 1.148 -s 0 -d 1 -p cbr -e 50 -c 0 -i 74 -a 0 -x {0.0 1.0 74 ------- null}
- -t 1.148 -s 0 -d 1 -p cbr -e 50 -c 0 -i 74 -a 0 -x {0.0 1.0 74 ------- null}
h -t 1.148 -s 0 -d 1 -p cbr -e 50 -c 0 -i 74 -a 0 -x {0.0 1.0 -1 ------- null}
r -t 1.14905 -s 0 -d 1 -p cbr -e 50 -c 0 -i 74 -a 0 -x {0.0 1.0 74 ------- null}
+ -t 1.15 -s 0 -d 1 -p cbr -e 50 -c 0 -i 75 -a 0 -x {0.0 1.0 75 ------- null}
- -t 1.15 -s 0 -d 1 -p cbr -e 50 -c 0 -i 75 -a 0 -x {0.0 1.0 75 ------- null}
h -t 1.15 -s 0 -d 1 -p cbr -e 50 -c 0 -i 75 -a 0 -x {0.0 1.0 -1 ------- null}
r -t 1.15105 -s 0 -d 1 -p cbr -e 50 -c 0 -i 75 -a 0 -x {0.0 1.0 75 ------- null}
+ -t 1.152 -s 0 -d 1 -p cbr -e 50 -c 0 -i 76 -a 0 -x {0.0 1.0 76 ------- null}
- -t 1.152 -s 0 -d 1 -p cbr -e 50 -c 0 -i 76 -a 0 -x {0.0 1.0 76 ------- null}
h -t 1.152 -s 0 -d 1 -p cbr -e 50 -c 0 -i 76 -a 0 -x {0.0 1.0 -1 ------- null}
r -t 1.15305 -s 0 -d 1 -p cbr -e 50 -c 0 -i 76 -a 0 -x {0.0 1.0 76 ------- null}
+ -t 1.154 -s 0 -d 1 -p cbr -e 50 -c 0 -i 77 -a 0 -x {0.0 1.0 77 ------- null}
- -t 1.154 -s 0 -d 1 -p cbr -e 50 -c 0 -i 77 -a 0 -x {0.0 1.0 77 ------- null}
h -t 1.154 -s 0 -d 1 -p cbr -e 50 -c 0 -i 77 -a 0 -x {0.0 1.0 -1 ------- null}
r -t 1.15505 -s 0 -d 1 -p cbr -e 50 -c 0 -i 77 -a 0 -x {0.0 1.0 77 ------- null}
+ -t 1.156 -s 0 -d 1 -p cbr -e 50 -c 0 -i 78 -a 0 -x {0.0 1.0 78 ------- null}
- -t 1.156 -s 0 -d 1 -p cbr -e 50 -c 0 -i 78 -a 0 -x {0.0 1.0 78 ------- null}
h -t 1.156 -s 0 -d 1 -p cbr -e 50 -c 0 -i 78 -a 0 -x {0.0 1.0 -1 ------- null}
r -t 1.15705 -s 0 -d 1 -p cbr -e 50 -c 0 -i 78 -a 0 -x {0.0 1.0 78 ------- null}
+ -t 1.158 -s 0 -d 1 -p cbr -e 50 -c 0 -i 79 -a 0 -x {0.0 1.0 79 ------- null}
- -t 1.158 -s 0 -d 1 -p cbr -e 50 -c 0 -i 79 -a 0 -x {0.0 1.0 79 ------- null}
h -t 1.158 -s 0 -d 1 -p cbr -e 50 -c 0 -i 79 -a 0 -x {0.0 1.0 -1 ------- null}
r -t 1.15905 -s 0 -d 1 -p cbr -e 50 -c 0 -i 79 -a 0 -x {0.0 1.0 79 ------- null}
+ -t 1.16 -s 0 -d 1 -p cbr -e 50 -c 0 -i 80 -a 0 -x {0.0 1.0 80 ------- null}
- -t 1.16 -s 0 -d 1 -p cbr -e 50 -c 0 -i 80 -a 0 -x {0.0 1.0 80 ------- null}
h -t 1.16 -s 0 -d 1 -p cbr -e 50 -c 0 -i 80 -a 0 -x {0.0 1.0 -1 ------- null}
r -t 1.16105 -s 0 -d 1 -p cbr -e 50 -c 0 -i 80 -a 0 -x {0.0 1.0 80 ------- null}
+ -t 1.162 -s 0 -d 1 -p cbr -e 50 -c 0 -i 81 -a 0 -x {0.0 1.0 81 ------- null}
- -t 1.162 -s 0 -d 1 -p cbr -e 50 -c 0 -i 81 -a 0 -x {0.0 1.0 81 ------- null}
h -t 1.162 -s 0 -d 1 -p cbr -e 50 -c 0 -i 81 -a 0 -x {0.0 1.0 -1 ------- null}
r -t 1.16305 -s 0 -d 1 -p cbr -e 50 -c 0 -i 81 -a 0 -x {0.0 1.0 81 ------- null}
+ -t 1.164 -s 0 -d 1 -p cbr -e 50 -c 0 -i 82 -a 0 -x {0.0 1.0 82 ------- null}
- -t 1.164 -s 0 -d 1 -p cbr -e 50 -c 0 -i 82 -a 0 -x {0.0 1.0 82 ------- null}
h -t 1.164 -s 0 -d 1 -p cbr -e 50 -c 0 -i 82 -a 0 -x {0.0 1.0 -1 ------- null}
r -t 1.16505 -s 0 -d 1 -p cbr -e 50 -c 0 -i 82 -a 0 -x {0.0 1.0 82 ------- null}
+ -t 1.166 -s 0 -d 1 -p cbr -e 50 -c 0 -i 83 -a 0 -x {0.0 1.0 83 ------- null}
- -t 1.166 -s 0 -d 1 -p cbr -e 50 -c 0 -i 83 -a 0 -x {0.0 1.0 83 ------- null}
h -t 1.166 -s 0 -d 1 -p cbr -e 50 -c 0 -i 83 -a 0 -x {0.0 1.0 -1 ------- null}
r -t 1.16705 -s 0 -d 1 -p cbr -e 50 -c 0 -i 83 -a 0 -x {0.0 1.0 83 ------- null}
+ -t 1.168 -s 0 -d 1 -p cbr -e 50 -c 0 -i 84 -a 0 -x {0.0 1.0 84 ------- null}
- -t 1.168 -s 0 -d 1 -p cbr -e 50 -c 0 -i 84 -a 0 -x {0.0 1.0 84 ------- null}
h -t 1.168 -s 0 -d 1 -p cbr -e 50 -c 0 -i 84 -a 0 -x {0.0 1.0 -1 ------- null}
r -t 1.16905 -s 0 -d 1 -p cbr -e 50 -c 0 -i 84 -a 0 -x {0.0 1.0 84 ------- null}
+ -t 1.17 -s 0 -d 1 -p cbr -e 50 -c 0 -i 85 -a 0 -x {0.0 1.0 85 ------- null}
- -t 1.17 -s 0 -d 1 -p cbr -e 50 -c 0 -i 85 -a 0 -x {0.0 1.0 85 ------- null}
h -t 1.17 -s 0 -d 1 -p cbr -e 50 -c 0 -i 85 -a 0 -x {0.0 1.0 -1 ------- null}
r -t 1.17105 -s 0 -d 1 -p cbr -e 50 -c 0 -i 85 -a 0 -x {0.0 1.0 85 ------- null}
+ -t 1.172 -s 0 -d 1 -p cbr -e 50 -c 0 -i 86 -a 0 -x {0.0 1.0 86 ------- null}
- -t 1.172 -s 0 -d 1 -p cbr -e 50 -c 0 -i 86 -a 0 -x {0.0 1.0 86 ------- null}
h -t 1.172 -s 0 -d 1 -p cbr -e 50 -c 0 -i 86 -a 0 -x {0.0 1.0 -1 ------- null}
r -t 1.17305 -s 0 -d 1 -p cbr -e 50 -c 0 -i 86 -a 0 -x {0.0 1.0 86 ------- null}
+ -t 1.174 -s 0 -d 1 -p cbr -e 50 -c 0 -i 87 -a 0 -x {0.0 1.0 87 ------- null}
- -t 1.174 -s 0 -d 1 -p cbr -e 50 -c 0 -i 87 -a 0 -x {0.0 1.0 87 ------- null}
h -t 1.174 -s 0 -d 1 -p cbr -e 50 -c 0 -i 87 -a 0 -x {0.0 1.0 -1 ------- null}
r -t 1.17505 -s 0 -d 1 -p cbr -e 50 -c 0 -i 87 -a 0 -x {0.0 1.0 87 ------- null}
+ -t 1.176 -s 0 -d 1 -p cbr -e 50 -c 0 -i 88 -a 0 -x {0.0 1.0 88 ------- null}
- -t 1.176 -s 0 -d 1 -p cbr -e 50 -c 0 -i 88 -a 0 -x {0.0 1.0 88 ------- null}
h -t 1.176 -s 0 -d 1 -p cbr -e 50 -c 0 -i 88 -a 0 -x {0.0 1.0 -1 ------- null}
r -t 1.17705 -s 0 -d 1 -p cbr -e 50 -c 0 -i 88 -a 0 -x {0.0 1.0 88 ------- null}
+ -t 1.178 -s 0 -d 1 -p cbr -e 50 -c 0 -i 89 -a 0 -x {0.0 1.0 89 ------- null}
- -t 1.178 -s 0 -d 1 -p cbr -e 50 -c 0 -i 89 -a 0 -x {0.0 1.0 89 ------- null}
h -t 1.178 -s 0 -d 1 -p cbr -e 50 -c 0 -i 89 -a 0 -x {0.0 1.0 -1 ------- null}
r -t 1.17905 -s 0 -d 1 -p cbr -e 50 -c 0 -i 89 -a 0 -x {0.0 1.0 89 ------- null}
+ -t 1.18 -s 0 -d 1 -p cbr -e 50 -c 0 -i 90 -a 0 -x {0.0 1.0 90 ------- null}
- -t 1.18 -s 0 -d 1 -p cbr -e 50 -c 0 -i 90 -a 0 -x {0.0 1.0 90 ------- null}
h -t 1.18 -s 0 -d 1 -p cbr -e 50 -c 0 -i 90 -a 0 -x {0.0 1.0 -1 ------- null}
r -t 1.18105 -s 0 -d 1 -p cbr -e 50 -c 0 -i 90 -a 0 -x {0.0 1.0 90 ------- null}
+ -t 1.182 -s 0 -d 1 -p cbr -e 50 -c 0 -i 91 -a 0 -x {0.0 1.0 91 ------- null}
- -t 1.182 -s 0 -d 1 -p cbr -e 50 -c 0 -i 91 -a 0 -x {0.0 1.0 91 ------- null}
h -t 1.182 -s 0 -d 1 -p cbr -e 50 -c 0 -i 91 -a 0 -x {0.0 1.0 -1 ------- null}
r -t 1.18305 -s 0 -d 1 -p cbr -e 50 -c 0 -i 91 -a 0 -x {0.0 1.0 91 ------- null}
+ -t 1.184 -s 0 -d 1 -p cbr -e 50 -c 0 -i 92 -a 0 -x {0.0 1.0 92 ------- null}
- -t 1.184 -s 0 -d 1 -p cbr -e 50 -c 0 -i 92 -a 0 -x {0.0 1.0 92 ------- null}
h -t 1.184 -s 0 -d 1 -p cbr -e 50 -c 0 -i 92 -a 0 -x {0.0 1.0 -1 ------- null}
r -t 1.18505 -s 0 -d 1 -p cbr -e 50 -c 0 -i 92 -a 0 -x {0.0 1.0 92 ------- null}
+ -t 1.186 -s 0 -d 1 -p cbr -e 50 -c 0 -i 93 -a 0 -x {0.0 1.0 93 ------- null}
- -t 1.186 -s 0 -d 1 -p cbr -e 50 -c 0 -i 93 -a 0 -x {0.0 1.0 93 ------- null}
h -t 1.186 -s 0 -d 1 -p cbr -e 50 -c 0 -i 93 -a 0 -x {0.0 1.0 -1 ------- null}