+ 0.00017 0 1 rtProtoDV 6 ------- 0 0.2 1.2 -1 2
- 0.00017 0 1 rtProtoDV 6 ------- 0 0.2 1.2 -1 2
+ 0.00017 0 5 rtProtoDV 6 ------- 0 0.2 5.1 -1 3
- 0.00017 0 5 rtProtoDV 6 ------- 0 0.2 5.1 -1 3
+ 0.007102 2 1 rtProtoDV 6 ------- 0 2.2 1.2 -1 11
- 0.007102 2 1 rtProtoDV 6 ------- 0 2.2 1.2 -1 11
+ 0.007102 2 3 rtProtoDV 6 ------- 0 2.2 3.2 -1 12
- 0.007102 2 3 rtProtoDV 6 ------- 0 2.2 3.2 -1 12
r 0.015186 0 1 rtProtoDV 6 ------- 0 0.2 1.2 -1 2
+ 0.015186 1 0 rtProtoDV 6 ------- 0 1.2 0.2 -1 21
- 0.015186 1 0 rtProtoDV 6 ------- 0 1.2 0.2 -1 21
+ 0.015186 1 2 rtProtoDV 6 ------- 0 1.2 2.2 -1 22
- 0.015186 1 2 rtProtoDV 6 ------- 0 1.2 2.2 -1 22
r 0.015186 0 5 rtProtoDV 6 ------- 0 0.2 5.1 -1 3
+ 0.015186 5 0 rtProtoDV 6 ------- 0 5.1 0.2 -1 23
- 0.015186 5 0 rtProtoDV 6 ------- 0 5.1 0.2 -1 23
+ 0.015186 5 4 rtProtoDV 6 ------- 0 5.1 4.1 -1 24
- 0.015186 5 4 rtProtoDV 6 ------- 0 5.1 4.1 -1 24
r 0.022118 2 1 rtProtoDV 6 ------- 0 2.2 1.2 -1 11
+ 0.022118 1 0 rtProtoDV 6 ------- 0 1.2 0.2 -1 32
- 0.022118 1 0 rtProtoDV 6 ------- 0 1.2 0.2 -1 32
+ 0.022118 1 2 rtProtoDV 6 ------- 0 1.2 2.2 -1 33
- 0.022118 1 2 rtProtoDV 6 ------- 0 1.2 2.2 -1 33
r 0.022118 2 3 rtProtoDV 6 ------- 0 2.2 3.2 -1 12
+ 0.022118 3 2 rtProtoDV 6 ------- 0 3.2 2.2 -1 34
- 0.022118 3 2 rtProtoDV 6 ------- 0 3.2 2.2 -1 34
+ 0.022118 3 4 rtProtoDV 6 ------- 0 3.2 4.1 -1 35
- 0.022118 3 4 rtProtoDV 6 ------- 0 3.2 4.1 -1 35
r 0.030202 1 0 rtProtoDV 6 ------- 0 1.2 0.2 -1 21
+ 0.030202 0 1 rtProtoDV 6 ------- 0 0.2 1.2 -1 44
- 0.030202 0 1 rtProtoDV 6 ------- 0 0.2 1.2 -1 44
+ 0.030202 0 5 rtProtoDV 6 ------- 0 0.2 5.1 -1 45
- 0.030202 0 5 rtProtoDV 6 ------- 0 0.2 5.1 -1 45
r 0.030202 1 2 rtProtoDV 6 ------- 0 1.2 2.2 -1 22
+ 0.030202 2 1 rtProtoDV 6 ------- 0 2.2 1.2 -1 46
- 0.030202 2 1 rtProtoDV 6 ------- 0 2.2 1.2 -1 46
+ 0.030202 2 3 rtProtoDV 6 ------- 0 2.2 3.2 -1 47
- 0.030202 2 3 rtProtoDV 6 ------- 0 2.2 3.2 -1 47
r 0.030202 5 0 rtProtoDV 6 ------- 0 5.1 0.2 -1 23
+ 0.030202 0 1 rtProtoDV 6 ------- 0 0.2 1.2 -1 48
+ 0.030202 0 5 rtProtoDV 6 ------- 0 0.2 5.1 -1 49
r 0.030202 5 4 rtProtoDV 6 ------- 0 5.1 4.1 -1 24
+ 0.030202 4 3 rtProtoDV 6 ------- 0 4.1 3.2 -1 50
- 0.030202 4 3 rtProtoDV 6 ------- 0 4.1 3.2 -1 50
+ 0.030202 4 5 rtProtoDV 6 ------- 0 4.1 5.1 -1 51
- 0.030202 4 5 rtProtoDV 6 ------- 0 4.1 5.1 -1 51
- 0.030218 0 1 rtProtoDV 6 ------- 0 0.2 1.2 -1 48
- 0.030218 0 5 rtProtoDV 6 ------- 0 0.2 5.1 -1 49
+ 0.031 0 1 cbr 100 ------- 0 0.0 2.0 31 52
- 0.031 0 1 cbr 100 ------- 0 0.0 2.0 31 52
+ 0.032 0 1 cbr 100 ------- 0 0.0 2.0 32 53
- 0.032 0 1 cbr 100 ------- 0 0.0 2.0 32 53
+ 0.033 0 1 cbr 100 ------- 0 0.0 2.0 33 54
- 0.033 0 1 cbr 100 ------- 0 0.0 2.0 33 54
+ 0.034 0 1 cbr 100 ------- 0 0.0 2.0 34 55
- 0.034 0 1 cbr 100 ------- 0 0.0 2.0 34 55
+ 0.035 0 1 cbr 100 ------- 0 0.0 2.0 35 56
- 0.035 0 1 cbr 100 ------- 0 0.0 2.0 35 56
+ 0.036 0 1 cbr 100 ------- 0 0.0 2.0 36 57
- 0.036 0 1 cbr 100 ------- 0 0.0 2.0 36 57
+ 0.037 0 1 cbr 100 ------- 0 0.0 2.0 37 58
- 0.037 0 1 cbr 100 ------- 0 0.0 2.0 37 58
r 0.037134 1 0 rtProtoDV 6 ------- 0 1.2 0.2 -1 32
+ 0.037134 0 1 rtProtoDV 6 ------- 0 0.2 1.2 -1 59
+ 0.037134 0 5 rtProtoDV 6 ------- 0 0.2 5.1 -1 60
- 0.037134 0 5 rtProtoDV 6 ------- 0 0.2 5.1 -1 60
r 0.037134 1 2 rtProtoDV 6 ------- 0 1.2 2.2 -1 33
r 0.037134 3 2 rtProtoDV 6 ------- 0 3.2 2.2 -1 34
+ 0.037134 2 1 rtProtoDV 6 ------- 0 2.2 1.2 -1 61
- 0.037134 2 1 rtProtoDV 6 ------- 0 2.2 1.2 -1 61
+ 0.037134 2 3 rtProtoDV 6 ------- 0 2.2 3.2 -1 62
- 0.037134 2 3 rtProtoDV 6 ------- 0 2.2 3.2 -1 62
r 0.037134 3 4 rtProtoDV 6 ------- 0 3.2 4.1 -1 35
+ 0.037134 4 3 rtProtoDV 6 ------- 0 4.1 3.2 -1 63
- 0.037134 4 3 rtProtoDV 6 ------- 0 4.1 3.2 -1 63
+ 0.037134 4 5 rtProtoDV 6 ------- 0 4.1 5.1 -1 64
- 0.037134 4 5 rtProtoDV 6 ------- 0 4.1 5.1 -1 64
- 0.037267 0 1 rtProtoDV 6 ------- 0 0.2 1.2 -1 59
+ 0.038 0 1 cbr 100 ------- 0 0.0 2.0 38 65
- 0.038 0 1 cbr 100 ------- 0 0.0 2.0 38 65
+ 0.039 0 1 cbr 100 ------- 0 0.0 2.0 39 66
- 0.039 0 1 cbr 100 ------- 0 0.0 2.0 39 66
+ 0.04 0 1 cbr 100 ------- 0 0.0 2.0 40 67
- 0.04 0 1 cbr 100 ------- 0 0.0 2.0 40 67
+ 0.041 0 1 cbr 100 ------- 0 0.0 2.0 41 68
- 0.041 0 1 cbr 100 ------- 0 0.0 2.0 41 68
+ 0.042 0 1 cbr 100 ------- 0 0.0 2.0 42 69
- 0.042 0 1 cbr 100 ------- 0 0.0 2.0 42 69
+ 0.043 0 1 cbr 100 ------- 0 0.0 2.0 43 70
- 0.043 0 1 cbr 100 ------- 0 0.0 2.0 43 70
+ 0.044 0 1 cbr 100 ------- 0 0.0 2.0 44 71
- 0.044 0 1 cbr 100 ------- 0 0.0 2.0 44 71
+ 0.044061 3 2 rtProtoDV 6 ------- 0 3.2 2.2 -1 72
- 0.044061 3 2 rtProtoDV 6 ------- 0 3.2 2.2 -1 72
+ 0.044061 3 4 rtProtoDV 6 ------- 0 3.2 4.1 -1 73
- 0.044061 3 4 rtProtoDV 6 ------- 0 3.2 4.1 -1 73
+ 0.045 0 1 cbr 100 ------- 0 0.0 2.0 45 74
- 0.045 0 1 cbr 100 ------- 0 0.0 2.0 45 74
r 0.045218 0 1 rtProtoDV 6 ------- 0 0.2 1.2 -1 44
r 0.045218 0 5 rtProtoDV 6 ------- 0 0.2 5.1 -1 45
+ 0.045218 5 0 rtProtoDV 6 ------- 0 5.1 0.2 -1 75
- 0.045218 5 0 rtProtoDV 6 ------- 0 5.1 0.2 -1 75
+ 0.045218 5 4 rtProtoDV 6 ------- 0 5.1 4.1 -1 76
- 0.045218 5 4 rtProtoDV 6 ------- 0 5.1 4.1 -1 76
r 0.045218 2 1 rtProtoDV 6 ------- 0 2.2 1.2 -1 46
r 0.045218 2 3 rtProtoDV 6 ------- 0 2.2 3.2 -1 47
+ 0.045218 3 2 rtProtoDV 6 ------- 0 3.2 2.2 -1 77
- 0.045218 3 2 rtProtoDV 6 ------- 0 3.2 2.2 -1 77
+ 0.045218 3 4 rtProtoDV 6 ------- 0 3.2 4.1 -1 78
- 0.045218 3 4 rtProtoDV 6 ------- 0 3.2 4.1 -1 78
r 0.045218 4 3 rtProtoDV 6 ------- 0 4.1 3.2 -1 50
+ 0.045218 3 2 rtProtoDV 6 ------- 0 3.2 2.2 -1 79
+ 0.045218 3 4 rtProtoDV 6 ------- 0 3.2 4.1 -1 80
r 0.045218 4 5 rtProtoDV 6 ------- 0 4.1 5.1 -1 51
+ 0.045218 5 0 rtProtoDV 6 ------- 0 5.1 0.2 -1 81
+ 0.045218 5 4 rtProtoDV 6 ------- 0 5.1 4.1 -1 82
r 0.045234 0 1 rtProtoDV 6 ------- 0 0.2 1.2 -1 48
+ 0.045234 1 0 rtProtoDV 6 ------- 0 1.2 0.2 -1 83
- 0.045234 1 0 rtProtoDV 6 ------- 0 1.2 0.2 -1 83
+ 0.045234 1 2 rtProtoDV 6 ------- 0 1.2 2.2 -1 84
- 0.045234 1 2 rtProtoDV 6 ------- 0 1.2 2.2 -1 84
r 0.045234 0 5 rtProtoDV 6 ------- 0 0.2 5.1 -1 49
- 0.045234 5 0 rtProtoDV 6 ------- 0 5.1 0.2 -1 81
- 0.045234 5 4 rtProtoDV 6 ------- 0 5.1 4.1 -1 82
- 0.045234 3 2 rtProtoDV 6 ------- 0 3.2 2.2 -1 79
- 0.045234 3 4 rtProtoDV 6 ------- 0 3.2 4.1 -1 80
+ 0.046 0 1 cbr 100 ------- 0 0.0 2.0 46 85
- 0.046 0 1 cbr 100 ------- 0 0.0 2.0 46 85
r 0.046267 0 1 cbr 100 ------- 0 0.0 2.0 31 52
+ 0.046267 1 2 cbr 100 ------- 0 0.0 2.0 31 52
- 0.046267 1 2 cbr 100 ------- 0 0.0 2.0 31 52
+ 0.047 0 1 cbr 100 ------- 0 0.0 2.0 47 86
- 0.047 0 1 cbr 100 ------- 0 0.0 2.0 47 86
r 0.047267 0 1 cbr 100 ------- 0 0.0 2.0 32 53
+ 0.047267 1 2 cbr 100 ------- 0 0.0 2.0 32 53
- 0.047267 1 2 cbr 100 ------- 0 0.0 2.0 32 53
+ 0.048 0 1 cbr 100 ------- 0 0.0 2.0 48 87
- 0.048 0 1 cbr 100 ------- 0 0.0 2.0 48 87
r 0.048267 0 1 cbr 100 ------- 0 0.0 2.0 33 54
+ 0.048267 1 2 cbr 100 ------- 0 0.0 2.0 33 54
- 0.048267 1 2 cbr 100 ------- 0 0.0 2.0 33 54
+ 0.049 0 1 cbr 100 ------- 0 0.0 2.0 49 88
- 0.049 0 1 cbr 100 ------- 0 0.0 2.0 49 88
r 0.049267 0 1 cbr 100 ------- 0 0.0 2.0 34 55
+ 0.049267 1 2 cbr 100 ------- 0 0.0 2.0 34 55
- 0.049267 1 2 cbr 100 ------- 0 0.0 2.0 34 55
+ 0.05 0 1 cbr 100 ------- 0 0.0 2.0 50 89
- 0.05 0 1 cbr 100 ------- 0 0.0 2.0 50 89
r 0.050267 0 1 cbr 100 ------- 0 0.0 2.0 35 56
+ 0.050267 1 2 cbr 100 ------- 0 0.0 2.0 35 56
- 0.050267 1 2 cbr 100 ------- 0 0.0 2.0 35 56
+ 0.051 0 1 cbr 100 ------- 0 0.0 2.0 51 90
- 0.051 0 1 cbr 100 ------- 0 0.0 2.0 51 90
r 0.051267 0 1 cbr 100 ------- 0 0.0 2.0 36 57
+ 0.051267 1 2 cbr 100 ------- 0 0.0 2.0 36 57
- 0.051267 1 2 cbr 100 ------- 0 0.0 2.0 36 57
+ 0.052 0 1 cbr 100 ------- 0 0.0 2.0 52 91
- 0.052 0 1 cbr 100 ------- 0 0.0 2.0 52 91
r 0.05215 0 5 rtProtoDV 6 ------- 0 0.2 5.1 -1 60
r 0.05215 2 1 rtProtoDV 6 ------- 0 2.2 1.2 -1 61
r 0.05215 2 3 rtProtoDV 6 ------- 0 2.2 3.2 -1 62
r 0.05215 4 3 rtProtoDV 6 ------- 0 4.1 3.2 -1 63
r 0.05215 4 5 rtProtoDV 6 ------- 0 4.1 5.1 -1 64
r 0.052267 0 1 cbr 100 ------- 0 0.0 2.0 37 58
+ 0.052267 1 2 cbr 100 ------- 0 0.0 2.0 37 58
- 0.052267 1 2 cbr 100 ------- 0 0.0 2.0 37 58
r 0.052283 0 1 rtProtoDV 6 ------- 0 0.2 1.2 -1 59
+ 0.053 0 1 cbr 100 ------- 0 0.0 2.0 53 92
- 0.053 0 1 cbr 100 ------- 0 0.0 2.0 53 92
r 0.053267 0 1 cbr 100 ------- 0 0.0 2.0 38 65
+ 0.053267 1 2 cbr 100 ------- 0 0.0 2.0 38 65
- 0.053267 1 2 cbr 100 ------- 0 0.0 2.0 38 65
+ 0.054 0 1 cbr 100 ------- 0 0.0 2.0 54 93
- 0.054 0 1 cbr 100 ------- 0 0.0 2.0 54 93
r 0.054267 0 1 cbr 100 ------- 0 0.0 2.0 39 66
+ 0.054267 1 2 cbr 100 ------- 0 0.0 2.0 39 66
- 0.054267 1 2 cbr 100 ------- 0 0.0 2.0 39 66
+ 0.055 0 1 cbr 100 ------- 0 0.0 2.0 55 94
- 0.055 0 1 cbr 100 ------- 0 0.0 2.0 55 94
r 0.055267 0 1 cbr 100 ------- 0 0.0 2.0 40 67
+ 0.055267 1 2 cbr 100 ------- 0 0.0 2.0 40 67
- 0.055267 1 2 cbr 100 ------- 0 0.0 2.0 40 67
+ 0.056 0 1 cbr 100 ------- 0 0.0 2.0 56 95
- 0.056 0 1 cbr 100 ------- 0 0.0 2.0 56 95
r 0.056267 0 1 cbr 100 ------- 0 0.0 2.0 41 68
+ 0.056267 1 2 cbr 100 ------- 0 0.0 2.0 41 68
- 0.056267 1 2 cbr 100 ------- 0 0.0 2.0 41 68
+ 0.057 0 1 cbr 100 ------- 0 0.0 2.0 57 96
- 0.057 0 1 cbr 100 ------- 0 0.0 2.0 57 96
r 0.057267 0 1 cbr 100 ------- 0 0.0 2.0 42 69
+ 0.057267 1 2 cbr 100 ------- 0 0.0 2.0 42 69
- 0.057267 1 2 cbr 100 ------- 0 0.0 2.0 42 69
+ 0.058 0 1 cbr 100 ------- 0 0.0 2.0 58 97
- 0.058 0 1 cbr 100 ------- 0 0.0 2.0 58 97
r 0.058267 0 1 cbr 100 ------- 0 0.0 2.0 43 70
+ 0.058267 1 2 cbr 100 ------- 0 0.0 2.0 43 70
- 0.058267 1 2 cbr 100 ------- 0 0.0 2.0 43 70
+ 0.059 0 1 cbr 100 ------- 0 0.0 2.0 59 98
- 0.059 0 1 cbr 100 ------- 0 0.0 2.0 59 98
r 0.059077 3 2 rtProtoDV 6 ------- 0 3.2 2.2 -1 72
r 0.059077 3 4 rtProtoDV 6 ------- 0 3.2 4.1 -1 73
r 0.059267 0 1 cbr 100 ------- 0 0.0 2.0 44 71
+ 0.059267 1 2 cbr 100 ------- 0 0.0 2.0 44 71
- 0.059267 1 2 cbr 100 ------- 0 0.0 2.0 44 71
+ 0.06 0 1 cbr 100 ------- 0 0.0 2.0 60 99
- 0.06 0 1 cbr 100 ------- 0 0.0 2.0 60 99
r 0.060234 5 0 rtProtoDV 6 ------- 0 5.1 0.2 -1 75
r 0.060234 5 4 rtProtoDV 6 ------- 0 5.1 4.1 -1 76
r 0.060234 3 2 rtProtoDV 6 ------- 0 3.2 2.2 -1 77
r 0.060234 3 4 rtProtoDV 6 ------- 0 3.2 4.1 -1 78
r 0.06025 1 0 rtProtoDV 6 ------- 0 1.2 0.2 -1 83
r 0.06025 1 2 rtProtoDV 6 ------- 0 1.2 2.2 -1 84
r 0.06025 5 0 rtProtoDV 6 ------- 0 5.1 0.2 -1 81
r 0.06025 5 4 rtProtoDV 6 ------- 0 5.1 4.1 -1 82
r 0.06025 3 2 rtProtoDV 6 ------- 0 3.2 2.2 -1 79
r 0.06025 3 4 rtProtoDV 6 ------- 0 3.2 4.1 -1 80
r 0.060267 0 1 cbr 100 ------- 0 0.0 2.0 45 74
+ 0.060267 1 2 cbr 100 ------- 0 0.0 2.0 45 74
- 0.060267 1 2 cbr 100 ------- 0 0.0 2.0 45 74
+ 0.061 0 1 cbr 100 ------- 0 0.0 2.0 61 100
- 0.061 0 1 cbr 100 ------- 0 0.0 2.0 61 100
r 0.061267 0 1 cbr 100 ------- 0 0.0 2.0 46 85
+ 0.061267 1 2 cbr 100 ------- 0 0.0 2.0 46 85
- 0.061267 1 2 cbr 100 ------- 0 0.0 2.0 46 85
r 0.061533 1 2 cbr 100 ------- 0 0.0 2.0 31 52
+ 0.062 0 1 cbr 100 ------- 0 0.0 2.0 62 101
- 0.062 0 1 cbr 100 ------- 0 0.0 2.0 62 101
r 0.062267 0 1 cbr 100 ------- 0 0.0 2.0 47 86
+ 0.062267 1 2 cbr 100 ------- 0 0.0 2.0 47 86
- 0.062267 1 2 cbr 100 ------- 0 0.0 2.0 47 86
r 0.062533 1 2 cbr 100 ------- 0 0.0 2.0 32 53
+ 0.063 0 1 cbr 100 ------- 0 0.0 2.0 63 102
- 0.063 0 1 cbr 100 ------- 0 0.0 2.0 63 102
r 0.063267 0 1 cbr 100 ------- 0 0.0 2.0 48 87
+ 0.063267 1 2 cbr 100 ------- 0 0.0 2.0 48 87
- 0.063267 1 2 cbr 100 ------- 0 0.0 2.0 48 87
r 0.063533 1 2 cbr 100 ------- 0 0.0 2.0 33 54
+ 0.064 0 1 cbr 100 ------- 0 0.0 2.0 64 103
- 0.064 0 1 cbr 100 ------- 0 0.0 2.0 64 103
r 0.064267 0 1 cbr 100 ------- 0 0.0 2.0 49 88
+ 0.064267 1 2 cbr 100 ------- 0 0.0 2.0 49 88
- 0.064267 1 2 cbr 100 ------- 0 0.0 2.0 49 88
r 0.064533 1 2 cbr 100 ------- 0 0.0 2.0 34 55
+ 0.065 0 1 cbr 100 ------- 0 0.0 2.0 65 104
- 0.065 0 1 cbr 100 ------- 0 0.0 2.0 65 104
r 0.065267 0 1 cbr 100 ------- 0 0.0 2.0 50 89
+ 0.065267 1 2 cbr 100 ------- 0 0.0 2.0 50 89
- 0.065267 1 2 cbr 100 ------- 0 0.0 2.0 50 89
r 0.065533 1 2 cbr 100 ------- 0 0.0 2.0 35 56
+ 0.066 0 1 cbr 100 ------- 0 0.0 2.0 66 105
- 0.066 0 1 cbr 100 ------- 0 0.0 2.0 66 105
r 0.066267 0 1 cbr 100 ------- 0 0.0 2.0 51 90
+ 0.066267 1 2 cbr 100 ------- 0 0.0 2.0 51 90
- 0.066267 1 2 cbr 100 ------- 0 0.0 2.0 51 90
r 0.066533 1 2 cbr 100 ------- 0 0.0 2.0 36 57
+ 0.067 0 1 cbr 100 ------- 0 0.0 2.0 67 106
- 0.067 0 1 cbr 100 ------- 0 0.0 2.0 67 106
r 0.067267 0 1 cbr 100 ------- 0 0.0 2.0 52 91
+ 0.067267 1 2 cbr 100 ------- 0 0.0 2.0 52 91
- 0.067267 1 2 cbr 100 ------- 0 0.0 2.0 52 91
r 0.067533 1 2 cbr 100 ------- 0 0.0 2.0 37 58
+ 0.068 0 1 cbr 100 ------- 0 0.0 2.0 68 107
- 0.068 0 1 cbr 100 ------- 0 0.0 2.0 68 107
r 0.068267 0 1 cbr 100 ------- 0 0.0 2.0 53 92
+ 0.068267 1 2 cbr 100 ------- 0 0.0 2.0 53 92
- 0.068267 1 2 cbr 100 ------- 0 0.0 2.0 53 92
r 0.068533 1 2 cbr 100 ------- 0 0.0 2.0 38 65
+ 0.069 0 1 cbr 100 ------- 0 0.0 2.0 69 108
- 0.069 0 1 cbr 100 ------- 0 0.0 2.0 69 108
r 0.069267 0 1 cbr 100 ------- 0 0.0 2.0 54 93
+ 0.069267 1 2 cbr 100 ------- 0 0.0 2.0 54 93
- 0.069267 1 2 cbr 100 ------- 0 0.0 2.0 54 93
r 0.069533 1 2 cbr 100 ------- 0 0.0 2.0 39 66
+ 0.07 0 1 cbr 100 ------- 0 0.0 2.0 70 109
- 0.07 0 1 cbr 100 ------- 0 0.0 2.0 70 109
r 0.070267 0 1 cbr 100 ------- 0 0.0 2.0 55 94
+ 0.070267 1 2 cbr 100 ------- 0 0.0 2.0 55 94
- 0.070267 1 2 cbr 100 ------- 0 0.0 2.0 55 94
r 0.070533 1 2 cbr 100 ------- 0 0.0 2.0 40 67
+ 0.071 0 1 cbr 100 ------- 0 0.0 2.0 71 110
- 0.071 0 1 cbr 100 ------- 0 0.0 2.0 71 110
r 0.071267 0 1 cbr 100 ------- 0 0.0 2.0 56 95
+ 0.071267 1 2 cbr 100 ------- 0 0.0 2.0 56 95
- 0.071267 1 2 cbr 100 ------- 0 0.0 2.0 56 95
r 0.071533 1 2 cbr 100 ------- 0 0.0 2.0 41 68
+ 0.072 0 1 cbr 100 ------- 0 0.0 2.0 72 111
- 0.072 0 1 cbr 100 ------- 0 0.0 2.0 72 111
r 0.072267 0 1 cbr 100 ------- 0 0.0 2.0 57 96
+ 0.072267 1 2 cbr 100 ------- 0 0.0 2.0 57 96
- 0.072267 1 2 cbr 100 ------- 0 0.0 2.0 57 96
r 0.072533 1 2 cbr 100 ------- 0 0.0 2.0 42 69
+ 0.073 0 1 cbr 100 ------- 0 0.0 2.0 73 112
- 0.073 0 1 cbr 100 ------- 0 0.0 2.0 73 112
r 0.073267 0 1 cbr 100 ------- 0 0.0 2.0 58 97
+ 0.073267 1 2 cbr 100 ------- 0 0.0 2.0 58 97
- 0.073267 1 2 cbr 100 ------- 0 0.0 2.0 58 97
r 0.073533 1 2 cbr 100 ------- 0 0.0 2.0 43 70
+ 0.074 0 1 cbr 100 ------- 0 0.0 2.0 74 113
- 0.074 0 1 cbr 100 ------- 0 0.0 2.0 74 113
r 0.074267 0 1 cbr 100 ------- 0 0.0 2.0 59 98
+ 0.074267 1 2 cbr 100 ------- 0 0.0 2.0 59 98
- 0.074267 1 2 cbr 100 ------- 0 0.0 2.0 59 98
r 0.074533 1 2 cbr 100 ------- 0 0.0 2.0 44 71
+ 0.075 0 1 cbr 100 ------- 0 0.0 2.0 75 114
- 0.075 0 1 cbr 100 ------- 0 0.0 2.0 75 114
r 0.075267 0 1 cbr 100 ------- 0 0.0 2.0 60 99
+ 0.075267 1 2 cbr 100 ------- 0 0.0 2.0 60 99
- 0.075267 1 2 cbr 100 ------- 0 0.0 2.0 60 99
r 0.075533 1 2 cbr 100 ------- 0 0.0 2.0 45 74
+ 0.076 0 1 cbr 100 ------- 0 0.0 2.0 76 115
- 0.076 0 1 cbr 100 ------- 0 0.0 2.0 76 115
r 0.076267 0 1 cbr 100 ------- 0 0.0 2.0 61 100
+ 0.076267 1 2 cbr 100 ------- 0 0.0 2.0 61 100
- 0.076267 1 2 cbr 100 ------- 0 0.0 2.0 61 100
r 0.076533 1 2 cbr 100 ------- 0 0.0 2.0 46 85
+ 0.077 0 1 cbr 100 ------- 0 0.0 2.0 77 116
- 0.077 0 1 cbr 100 ------- 0 0.0 2.0 77 116
r 0.077267 0 1 cbr 100 ------- 0 0.0 2.0 62 101
+ 0.077267 1 2 cbr 100 ------- 0 0.0 2.0 62 101
- 0.077267 1 2 cbr 100 ------- 0 0.0 2.0 62 101
r 0.077533 1 2 cbr 100 ------- 0 0.0 2.0 47 86
+ 0.078 0 1 cbr 100 ------- 0 0.0 2.0 78 117
- 0.078 0 1 cbr 100 ------- 0 0.0 2.0 78 117
r 0.078267 0 1 cbr 100 ------- 0 0.0 2.0 63 102
+ 0.078267 1 2 cbr 100 ------- 0 0.0 2.0 63 102
- 0.078267 1 2 cbr 100 ------- 0 0.0 2.0 63 102
r 0.078533 1 2 cbr 100 ------- 0 0.0 2.0 48 87
+ 0.079 0 1 cbr 100 ------- 0 0.0 2.0 79 118
- 0.079 0 1 cbr 100 ------- 0 0.0 2.0 79 118
r 0.079267 0 1 cbr 100 ------- 0 0.0 2.0 64 103
+ 0.079267 1 2 cbr 100 ------- 0 0.0 2.0 64 103
- 0.079267 1 2 cbr 100 ------- 0 0.0 2.0 64 103
r 0.079533 1 2 cbr 100 ------- 0 0.0 2.0 49 88
+ 0.08 0 1 cbr 100 ------- 0 0.0 2.0 80 119
- 0.08 0 1 cbr 100 ------- 0 0.0 2.0 80 119
r 0.080267 0 1 cbr 100 ------- 0 0.0 2.0 65 104
+ 0.080267 1 2 cbr 100 ------- 0 0.0 2.0 65 104
- 0.080267 1 2 cbr 100 ------- 0 0.0 2.0 65 104
r 0.080533 1 2 cbr 100 ------- 0 0.0 2.0 50 89
+ 0.081 0 1 cbr 100 ------- 0 0.0 2.0 81 120
- 0.081 0 1 cbr 100 ------- 0 0.0 2.0 81 120
r 0.081267 0 1 cbr 100 ------- 0 0.0 2.0 66 105
+ 0.081267 1 2 cbr 100 ------- 0 0.0 2.0 66 105
- 0.081267 1 2 cbr 100 ------- 0 0.0 2.0 66 105
r 0.081533 1 2 cbr 100 ------- 0 0.0 2.0 51 90
+ 0.082 0 1 cbr 100 ------- 0 0.0 2.0 82 121
- 0.082 0 1 cbr 100 ------- 0 0.0 2.0 82 121
r 0.082267 0 1 cbr 100 ------- 0 0.0 2.0 67 106
+ 0.082267 1 2 cbr 100 ------- 0 0.0 2.0 67 106
- 0.082267 1 2 cbr 100 ------- 0 0.0 2.0 67 106
r 0.082533 1 2 cbr 100 ------- 0 0.0 2.0 52 91
+ 0.083 0 1 cbr 100 ------- 0 0.0 2.0 83 122
- 0.083 0 1 cbr 100 ------- 0 0.0 2.0 83 122
r 0.083267 0 1 cbr 100 ------- 0 0.0 2.0 68 107
+ 0.083267 1 2 cbr 100 ------- 0 0.0 2.0 68 107
- 0.083267 1 2 cbr 100 ------- 0 0.0 2.0 68 107
r 0.083533 1 2 cbr 100 ------- 0 0.0 2.0 53 92
+ 0.084 0 1 cbr 100 ------- 0 0.0 2.0 84 123
- 0.084 0 1 cbr 100 ------- 0 0.0 2.0 84 123
r 0.084267 0 1 cbr 100 ------- 0 0.0 2.0 69 108
+ 0.084267 1 2 cbr 100 ------- 0 0.0 2.0 69 108
- 0.084267 1 2 cbr 100 ------- 0 0.0 2.0 69 108
r 0.084533 1 2 cbr 100 ------- 0 0.0 2.0 54 93
+ 0.085 0 1 cbr 100 ------- 0 0.0 2.0 85 124
- 0.085 0 1 cbr 100 ------- 0 0.0 2.0 85 124
r 0.085267 0 1 cbr 100 ------- 0 0.0 2.0 70 109
+ 0.085267 1 2 cbr 100 ------- 0 0.0 2.0 70 109
- 0.085267 1 2 cbr 100 ------- 0 0.0 2.0 70 109
r 0.085533 1 2 cbr 100 ------- 0 0.0 2.0 55 94
+ 0.086 0 1 cbr 100 ------- 0 0.0 2.0 86 125
- 0.086 0 1 cbr 100 ------- 0 0.0 2.0 86 125
r 0.086267 0 1 cbr 100 ------- 0 0.0 2.0 71 110
+ 0.086267 1 2 cbr 100 ------- 0 0.0 2.0 71 110
- 0.086267 1 2 cbr 100 ------- 0 0.0 2.0 71 110
r 0.086533 1 2 cbr 100 ------- 0 0.0 2.0 56 95
+ 0.087 0 1 cbr 100 ------- 0 0.0 2.0 87 126
- 0.087 0 1 cbr 100 ------- 0 0.0 2.0 87 126
r 0.087267 0 1 cbr 100 ------- 0 0.0 2.0 72 111
+ 0.087267 1 2 cbr 100 ------- 0 0.0 2.0 72 111
- 0.087267 1 2 cbr 100 ------- 0 0.0 2.0 72 111
r 0.087533 1 2 cbr 100 ------- 0 0.0 2.0 57 96
+ 0.088 0 1 cbr 100 ------- 0 0.0 2.0 88 127
- 0.088 0 1 cbr 100 ------- 0 0.0 2.0 88 127
r 0.088267 0 1 cbr 100 ------- 0 0.0 2.0 73 112
+ 0.088267 1 2 cbr 100 ------- 0 0.0 2.0 73 112
- 0.088267 1 2 cbr 100 ------- 0 0.0 2.0 73 112
r 0.088533 1 2 cbr 100 ------- 0 0.0 2.0 58 97
+ 0.089 0 1 cbr 100 ------- 0 0.0 2.0 89 128
- 0.089 0 1 cbr 100 ------- 0 0.0 2.0 89 128
r 0.089267 0 1 cbr 100 ------- 0 0.0 2.0 74 113
+ 0.089267 1 2 cbr 100 ------- 0 0.0 2.0 74 113
- 0.089267 1 2 cbr 100 ------- 0 0.0 2.0 74 113
r 0.089533 1 2 cbr 100 ------- 0 0.0 2.0 59 98
+ 0.09 0 1 cbr 100 ------- 0 0.0 2.0 90 129
- 0.09 0 1 cbr 100 ------- 0 0.0 2.0 90 129
r 0.090267 0 1 cbr 100 ------- 0 0.0 2.0 75 114
+ 0.090267 1 2 cbr 100 ------- 0 0.0 2.0 75 114
- 0.090267 1 2 cbr 100 ------- 0 0.0 2.0 75 114
r 0.090533 1 2 cbr 100 ------- 0 0.0 2.0 60 99
+ 0.091 0 1 cbr 100 ------- 0 0.0 2.0 91 130
- 0.091 0 1 cbr 100 ------- 0 0.0 2.0 91 130
r 0.091267 0 1 cbr 100 ------- 0 0.0 2.0 76 115
+ 0.091267 1 2 cbr 100 ------- 0 0.0 2.0 76 115
- 0.091267 1 2 cbr 100 ------- 0 0.0 2.0 76 115
r 0.091533 1 2 cbr 100 ------- 0 0.0 2.0 61 100
+ 0.092 0 1 cbr 100 ------- 0 0.0 2.0 92 131
- 0.092 0 1 cbr 100 ------- 0 0.0 2.0 92 131
r 0.092267 0 1 cbr 100 ------- 0 0.0 2.0 77 116
+ 0.092267 1 2 cbr 100 ------- 0 0.0 2.0 77 116
- 0.092267 1 2 cbr 100 ------- 0 0.0 2.0 77 116
r 0.092533 1 2 cbr 100 ------- 0 0.0 2.0 62 101
+ 0.093 0 1 cbr 100 ------- 0 0.0 2.0 93 132
- 0.093 0 1 cbr 100 ------- 0 0.0 2.0 93 132
r 0.093267 0 1 cbr 100 ------- 0 0.0 2.0 78 117
+ 0.093267 1 2 cbr 100 ------- 0 0.0 2.0 78 117
- 0.093267 1 2 cbr 100 ------- 0 0.0 2.0 78 117
r 0.093533 1 2 cbr 100 ------- 0 0.0 2.0 63 102
+ 0.094 0 1 cbr 100 ------- 0 0.0 2.0 94 133
- 0.094 0 1 cbr 100 ------- 0 0.0 2.0 94 133
r 0.094267 0 1 cbr 100 ------- 0 0.0 2.0 79 118
+ 0.094267 1 2 cbr 100 ------- 0 0.0 2.0 79 118
- 0.094267 1 2 cbr 100 ------- 0 0.0 2.0 79 118
r 0.094533 1 2 cbr 100 ------- 0 0.0 2.0 64 103
+ 0.095 0 1 cbr 100 ------- 0 0.0 2.0 95 134
- 0.095 0 1 cbr 100 ------- 0 0.0 2.0 95 134
r 0.095267 0 1 cbr 100 ------- 0 0.0 2.0 80 119
+ 0.095267 1 2 cbr 100 ------- 0 0.0 2.0 80 119
- 0.095267 1 2 cbr 100 ------- 0 0.0 2.0 80 119
r 0.095533 1 2 cbr 100 ------- 0 0.0 2.0 65 104
+ 0.096 0 1 cbr 100 ------- 0 0.0 2.0 96 135
- 0.096 0 1 cbr 100 ------- 0 0.0 2.0 96 135
r 0.096267 0 1 cbr 100 ------- 0 0.0 2.0 81 120
+ 0.096267 1 2 cbr 100 ------- 0 0.0 2.0 81 120
- 0.096267 1 2 cbr 100 ------- 0 0.0 2.0 81 120
r 0.096533 1 2 cbr 100 ------- 0 0.0 2.0 66 105
+ 0.097 0 1 cbr 100 ------- 0 0.0 2.0 97 136
- 0.097 0 1 cbr 100 ------- 0 0.0 2.0 97 136
r 0.097267 0 1 cbr 100 ------- 0 0.0 2.0 82 121
+ 0.097267 1 2 cbr 100 ------- 0 0.0 2.0 82 121
- 0.097267 1 2 cbr 100 ------- 0 0.0 2.0 82 121
r 0.097533 1 2 cbr 100 ------- 0 0.0 2.0 67 106
+ 0.098 0 1 cbr 100 ------- 0 0.0 2.0 98 137
- 0.098 0 1 cbr 100 ------- 0 0.0 2.0 98 137
r 0.098267 0 1 cbr 100 ------- 0 0.0 2.0 83 122
+ 0.098267 1 2 cbr 100 ------- 0 0.0 2.0 83 122
- 0.098267 1 2 cbr 100 ------- 0 0.0 2.0 83 122
r 0.098533 1 2 cbr 100 ------- 0 0.0 2.0 68 107
+ 0.099 0 1 cbr 100 ------- 0 0.0 2.0 99 138
- 0.099 0 1 cbr 100 ------- 0 0.0 2.0 99 138
r 0.099267 0 1 cbr 100 ------- 0 0.0 2.0 84 123
+ 0.099267 1 2 cbr 100 ------- 0 0.0 2.0 84 123
- 0.099267 1 2 cbr 100 ------- 0 0.0 2.0 84 123
r 0.099533 1 2 cbr 100 ------- 0 0.0 2.0 69 108
+ 0.1 0 1 cbr 100 ------- 0 0.0 2.0 100 139
- 0.1 0 1 cbr 100 ------- 0 0.0 2.0 100 139
r 0.100267 0 1 cbr 100 ------- 0 0.0 2.0 85 124
+ 0.100267 1 2 cbr 100 ------- 0 0.0 2.0 85 124
- 0.100267 1 2 cbr 100 ------- 0 0.0 2.0 85 124
r 0.100533 1 2 cbr 100 ------- 0 0.0 2.0 70 109
+ 0.101 0 1 cbr 100 ------- 0 0.0 2.0 101 140
- 0.101 0 1 cbr 100 ------- 0 0.0 2.0 101 140
r 0.101267 0 1 cbr 100 ------- 0 0.0 2.0 86 125
+ 0.101267 1 2 cbr 100 ------- 0 0.0 2.0 86 125
- 0.101267 1 2 cbr 100 ------- 0 0.0 2.0 86 125
r 0.101533 1 2 cbr 100 ------- 0 0.0 2.0 71 110
+ 0.102 0 1 cbr 100 ------- 0 0.0 2.0 102 141
- 0.102 0 1 cbr 100 ------- 0 0.0 2.0 102 141
r 0.102267 0 1 cbr 100 ------- 0 0.0 2.0 87 126
+ 0.102267 1 2 cbr 100 ------- 0 0.0 2.0 87 126
- 0.102267 1 2 cbr 100 ------- 0 0.0 2.0 87 126
r 0.102533 1 2 cbr 100 ------- 0 0.0 2.0 72 111
+ 0.103 0 1 cbr 100 ------- 0 0.0 2.0 103 142
- 0.103 0 1 cbr 100 ------- 0 0.0 2.0 103 142
r 0.103267 0 1 cbr 100 ------- 0 0.0 2.0 88 127
+ 0.103267 1 2 cbr 100 ------- 0 0.0 2.0 88 127
- 0.103267 1 2 cbr 100 ------- 0 0.0 2.0 88 127
r 0.103533 1 2 cbr 100 ------- 0 0.0 2.0 73 112
+ 0.104 0 1 cbr 100 ------- 0 0.0 2.0 104 143
- 0.104 0 1 cbr 100 ------- 0 0.0 2.0 104 143
r 0.104267 0 1 cbr 100 ------- 0 0.0 2.0 89 128
+ 0.104267 1 2 cbr 100 ------- 0 0.0 2.0 89 128
- 0.104267 1 2 cbr 100 ------- 0 0.0 2.0 89 128
r 0.104533 1 2 cbr 100 ------- 0 0.0 2.0 74 113
+ 0.105 0 1 cbr 100 ------- 0 0.0 2.0 105 144
- 0.105 0 1 cbr 100 ------- 0 0.0 2.0 105 144
r 0.105267 0 1 cbr 100 ------- 0 0.0 2.0 90 129
+ 0.105267 1 2 cbr 100 ------- 0 0.0 2.0 90 129
- 0.105267 1 2 cbr 100 ------- 0 0.0 2.0 90 129
r 0.105533 1 2 cbr 100 ------- 0 0.0 2.0 75 114
+ 0.106 0 1 cbr 100 ------- 0 0.0 2.0 106 145
- 0.106 0 1 cbr 100 ------- 0 0.0 2.0 106 145
r 0.106267 0 1 cbr 100 ------- 0 0.0 2.0 91 130
+ 0.106267 1 2 cbr 100 ------- 0 0.0 2.0 91 130
- 0.106267 1 2 cbr 100 ------- 0 0.0 2.0 91 130
r 0.106533 1 2 cbr 100 ------- 0 0.0 2.0 76 115
+ 0.107 0 1 cbr 100 ------- 0 0.0 2.0 107 146
- 0.107 0 1 cbr 100 ------- 0 0.0 2.0 107 146
r 0.107267 0 1 cbr 100 ------- 0 0.0 2.0 92 131
+ 0.107267 1 2 cbr 100 ------- 0 0.0 2.0 92 131
- 0.107267 1 2 cbr 100 ------- 0 0.0 2.0 92 131
r 0.107533 1 2 cbr 100 ------- 0 0.0 2.0 77 116
+ 0.108 0 1 cbr 100 ------- 0 0.0 2.0 108 147
- 0.108 0 1 cbr 100 ------- 0 0.0 2.0 108 147
r 0.108267 0 1 cbr 100 ------- 0 0.0 2.0 93 132
+ 0.108267 1 2 cbr 100 ------- 0 0.0 2.0 93 132
- 0.108267 1 2 cbr 100 ------- 0 0.0 2.0 93 132
r 0.108533 1 2 cbr 100 ------- 0 0.0 2.0 78 117
+ 0.109 0 1 cbr 100 ------- 0 0.0 2.0 109 148
- 0.109 0 1 cbr 100 ------- 0 0.0 2.0 109 148
r 0.109267 0 1 cbr 100 ------- 0 0.0 2.0 94 133
+ 0.109267 1 2 cbr 100 ------- 0 0.0 2.0 94 133
- 0.109267 1 2 cbr 100 ------- 0 0.0 2.0 94 133
r 0.109533 1 2 cbr 100 ------- 0 0.0 2.0 79 118
+ 0.11 0 1 cbr 100 ------- 0 0.0 2.0 110 149
- 0.11 0 1 cbr 100 ------- 0 0.0 2.0 110 149
r 0.110267 0 1 cbr 100 ------- 0 0.0 2.0 95 134
+ 0.110267 1 2 cbr 100 ------- 0 0.0 2.0 95 134
- 0.110267 1 2 cbr 100 ------- 0 0.0 2.0 95 134
r 0.110533 1 2 cbr 100 ------- 0 0.0 2.0 80 119
+ 0.111 0 1 cbr 100 ------- 0 0.0 2.0 111 150
- 0.111 0 1 cbr 100 ------- 0 0.0 2.0 111 150
r 0.111267 0 1 cbr 100 ------- 0 0.0 2.0 96 135
+ 0.111267 1 2 cbr 100 ------- 0 0.0 2.0 96 135
- 0.111267 1 2 cbr 100 ------- 0 0.0 2.0 96 135
r 0.111533 1 2 cbr 100 ------- 0 0.0 2.0 81 120
+ 0.112 0 1 cbr 100 ------- 0 0.0 2.0 112 151
- 0.112 0 1 cbr 100 ------- 0 0.0 2.0 112 151
r 0.112267 0 1 cbr 100 ------- 0 0.0 2.0 97 136
+ 0.112267 1 2 cbr 100 ------- 0 0.0 2.0 97 136
- 0.112267 1 2 cbr 100 ------- 0 0.0 2.0 97 136
r 0.112533 1 2 cbr 100 ------- 0 0.0 2.0 82 121
+ 0.113 0 1 cbr 100 ------- 0 0.0 2.0 113 152
- 0.113 0 1 cbr 100 ------- 0 0.0 2.0 113 152
r 0.113267 0 1 cbr 100 ------- 0 0.0 2.0 98 137
+ 0.113267 1 2 cbr 100 ------- 0 0.0 2.0 98 137
- 0.113267 1 2 cbr 100 ------- 0 0.0 2.0 98 137
r 0.113533 1 2 cbr 100 ------- 0 0.0 2.0 83 122
+ 0.114 0 1 cbr 100 ------- 0 0.0 2.0 114 153
- 0.114 0 1 cbr 100 ------- 0 0.0 2.0 114 153
r 0.114267 0 1 cbr 100 ------- 0 0.0 2.0 99 138
+ 0.114267 1 2 cbr 100 ------- 0 0.0 2.0 99 138
- 0.114267 1 2 cbr 100 ------- 0 0.0 2.0 99 138
r 0.114533 1 2 cbr 100 ------- 0 0.0 2.0 84 123
+ 0.115 0 1 cbr 100 ------- 0 0.0 2.0 115 154
- 0.115 0 1 cbr 100 ------- 0 0.0 2.0 115 154
r 0.115267 0 1 cbr 100 ------- 0 0.0 2.0 100 139
+ 0.115267 1 2 cbr 100 ------- 0 0.0 2.0 100 139
- 0.115267 1 2 cbr 100 ------- 0 0.0 2.0 100 139
r 0.115533 1 2 cbr 100 ------- 0 0.0 2.0 85 124
+ 0.116 0 1 cbr 100 ------- 0 0.0 2.0 116 155
- 0.116 0 1 cbr 100 ------- 0 0.0 2.0 116 155
r 0.116267 0 1 cbr 100 ------- 0 0.0 2.0 101 140
+ 0.116267 1 2 cbr 100 ------- 0 0.0 2.0 101 140
- 0.116267 1 2 cbr 100 ------- 0 0.0 2.0 101 140
r 0.116533 1 2 cbr 100 ------- 0 0.0 2.0 86 125
+ 0.117 0 1 cbr 100 ------- 0 0.0 2.0 117 156
- 0.117 0 1 cbr 100 ------- 0 0.0 2.0 117 156
r 0.117267 0 1 cbr 100 ------- 0 0.0 2.0 102 141
+ 0.117267 1 2 cbr 100 ------- 0 0.0 2.0 102 141
- 0.117267 1 2 cbr 100 ------- 0 0.0 2.0 102 141
r 0.117533 1 2 cbr 100 ------- 0 0.0 2.0 87 126
+ 0.118 0 1 cbr 100 ------- 0 0.0 2.0 118 157
- 0.118 0 1 cbr 100 ------- 0 0.0 2.0 118 157
r 0.118267 0 1 cbr 100 ------- 0 0.0 2.0 103 142
+ 0.118267 1 2 cbr 100 ------- 0 0.0 2.0 103 142
- 0.118267 1 2 cbr 100 ------- 0 0.0 2.0 103 142
r 0.118533 1 2 cbr 100 ------- 0 0.0 2.0 88 127
+ 0.119 0 1 cbr 100 ------- 0 0.0 2.0 119 158
- 0.119 0 1 cbr 100 ------- 0 0.0 2.0 119 158
r 0.119267 0 1 cbr 100 ------- 0 0.0 2.0 104 143
+ 0.119267 1 2 cbr 100 ------- 0 0.0 2.0 104 143
- 0.119267 1 2 cbr 100 ------- 0 0.0 2.0 104 143
r 0.119533 1 2 cbr 100 ------- 0 0.0 2.0 89 128
+ 0.12 0 1 cbr 100 ------- 0 0.0 2.0 120 159
- 0.12 0 1 cbr 100 ------- 0 0.0 2.0 120 159
r 0.120267 0 1 cbr 100 ------- 0 0.0 2.0 105 144
+ 0.120267 1 2 cbr 100 ------- 0 0.0 2.0 105 144
- 0.120267 1 2 cbr 100 ------- 0 0.0 2.0 105 144
r 0.120533 1 2 cbr 100 ------- 0 0.0 2.0 90 129
+ 0.121 0 1 cbr 100 ------- 0 0.0 2.0 121 160
- 0.121 0 1 cbr 100 ------- 0 0.0 2.0 121 160
r 0.121267 0 1 cbr 100 ------- 0 0.0 2.0 106 145
+ 0.121267 1 2 cbr 100 ------- 0 0.0 2.0 106 145
- 0.121267 1 2 cbr 100 ------- 0 0.0 2.0 106 145
r 0.121533 1 2 cbr 100 ------- 0 0.0 2.0 91 130
+ 0.122 0 1 cbr 100 ------- 0 0.0 2.0 122 161
- 0.122 0 1 cbr 100 ------- 0 0.0 2.0 122 161
r 0.122267 0 1 cbr 100 ------- 0 0.0 2.0 107 146
+ 0.122267 1 2 cbr 100 ------- 0 0.0 2.0 107 146
- 0.122267 1 2 cbr 100 ------- 0 0.0 2.0 107 146
r 0.122533 1 2 cbr 100 ------- 0 0.0 2.0 92 131
+ 0.123 0 1 cbr 100 ------- 0 0.0 2.0 123 162
- 0.123 0 1 cbr 100 ------- 0 0.0 2.0 123 162
r 0.123267 0 1 cbr 100 ------- 0 0.0 2.0 108 147
+ 0.123267 1 2 cbr 100 ------- 0 0.0 2.0 108 147
- 0.123267 1 2 cbr 100 ------- 0 0.0 2.0 108 147
r 0.123533 1 2 cbr 100 ------- 0 0.0 2.0 93 132
+ 0.124 0 1 cbr 100 ------- 0 0.0 2.0 124 163
- 0.124 0 1 cbr 100 ------- 0 0.0 2.0 124 163
r 0.124267 0 1 cbr 100 ------- 0 0.0 2.0 109 148
+ 0.124267 1 2 cbr 100 ------- 0 0.0 2.0 109 148
- 0.124267 1 2 cbr 100 ------- 0 0.0 2.0 109 148
r 0.124533 1 2 cbr 100 ------- 0 0.0 2.0 94 133
+ 0.125 0 1 cbr 100 ------- 0 0.0 2.0 125 164
- 0.125 0 1 cbr 100 ------- 0 0.0 2.0 125 164
r 0.125267 0 1 cbr 100 ------- 0 0.0 2.0 110 149
+ 0.125267 1 2 cbr 100 ------- 0 0.0 2.0 110 149
- 0.125267 1 2 cbr 100 ------- 0 0.0 2.0 110 149
r 0.125533 1 2 cbr 100 ------- 0 0.0 2.0 95 134
+ 0.126 0 1 cbr 100 ------- 0 0.0 2.0 126 165
- 0.126 0 1 cbr 100 ------- 0 0.0 2.0 126 165
r 0.126267 0 1 cbr 100 ------- 0 0.0 2.0 111 150
+ 0.126267 1 2 cbr 100 ------- 0 0.0 2.0 111 150
- 0.126267 1 2 cbr 100 ------- 0 0.0 2.0 111 150
r 0.126533 1 2 cbr 100 ------- 0 0.0 2.0 96 135
+ 0.127 0 1 cbr 100 ------- 0 0.0 2.0 127 166
- 0.127 0 1 cbr 100 ------- 0 0.0 2.0 127 166
r 0.127267 0 1 cbr 100 ------- 0 0.0 2.0 112 151
+ 0.127267 1 2 cbr 100 ------- 0 0.0 2.0 112 151
- 0.127267 1 2 cbr 100 ------- 0 0.0 2.0 112 151
r 0.127533 1 2 cbr 100 ------- 0 0.0 2.0 97 136
+ 0.128 0 1 cbr 100 ------- 0 0.0 2.0 128 167
- 0.128 0 1 cbr 100 ------- 0 0.0 2.0 128 167
r 0.128267 0 1 cbr 100 ------- 0 0.0 2.0 113 152
+ 0.128267 1 2 cbr 100 ------- 0 0.0 2.0 113 152
- 0.128267 1 2 cbr 100 ------- 0 0.0 2.0 113 152
r 0.128533 1 2 cbr 100 ------- 0 0.0 2.0 98 137
+ 0.129 0 1 cbr 100 ------- 0 0.0 2.0 129 168
- 0.129 0 1 cbr 100 ------- 0 0.0 2.0 129 168
r 0.129267 0 1 cbr 100 ------- 0 0.0 2.0 114 153
+ 0.129267 1 2 cbr 100 ------- 0 0.0 2.0 114 153
- 0.129267 1 2 cbr 100 ------- 0 0.0 2.0 114 153