V -t * -v 1.0a5 -a 0
A -t * -n 1 -p 0 -o 0x7fffffff -c 30 -a 1
A -t * -h 1 -m 1073741823 -s 0
n -t * -a 0 -s 0 -S UP -v square -c cyan -i cyan
n -t * -a 1 -s 1 -S UP -v square -c cyan -i cyan
n -t * -a 2 -s 2 -S UP -v circle -c blue -i blue
n -t * -a 3 -s 3 -S UP -v square -c cyan -i cyan
l -t * -s 0 -d 2 -S UP -r 3000000 -D 0.0015 -c black -o right-down
l -t * -s 1 -d 2 -S UP -r 1500000 -D 0.002 -c black -o right-up
l -t * -s 2 -d 3 -S UP -r 2000000 -D 0.002 -c black -o right
+ -t 1 -s 0 -d 2 -p cbr -e 50 -c 0 -i 0 -a 0 -x {0.0 3.0 0 ------- null}
- -t 1 -s 0 -d 2 -p cbr -e 50 -c 0 -i 0 -a 0 -x {0.0 3.0 0 ------- null}
h -t 1 -s 0 -d 2 -p cbr -e 50 -c 0 -i 0 -a 0 -x {0.0 3.0 -1 ------- null}
+ -t 1 -s 1 -d 2 -p cbr -e 50 -c 0 -i 1 -a 0 -x {1.0 3.0 0 ------- null}
- -t 1 -s 1 -d 2 -p cbr -e 50 -c 0 -i 1 -a 0 -x {1.0 3.0 0 ------- null}
h -t 1 -s 1 -d 2 -p cbr -e 50 -c 0 -i 1 -a 0 -x {1.0 3.0 -1 ------- null}
+ -t 1.001 -s 1 -d 2 -p cbr -e 50 -c 0 -i 2 -a 0 -x {1.0 3.0 1 ------- null}
- -t 1.001 -s 1 -d 2 -p cbr -e 50 -c 0 -i 2 -a 0 -x {1.0 3.0 1 ------- null}
h -t 1.001 -s 1 -d 2 -p cbr -e 50 -c 0 -i 2 -a 0 -x {1.0 3.0 -1 ------- null}
r -t 1.00163333333333 -s 0 -d 2 -p cbr -e 50 -c 0 -i 0 -a 0 -x {0.0 3.0 0 ------- null}
+ -t 1.00163333333333 -s 2 -d 3 -p cbr -e 50 -c 0 -i 0 -a 0 -x {0.0 3.0 0 ------- null}
- -t 1.00163333333333 -s 2 -d 3 -p cbr -e 50 -c 0 -i 0 -a 0 -x {0.0 3.0 0 ------- null}
h -t 1.00163333333333 -s 2 -d 3 -p cbr -e 50 -c 0 -i 0 -a 0 -x {0.0 3.0 -1 ------- null}
+ -t 1.002 -s 1 -d 2 -p cbr -e 50 -c 0 -i 3 -a 0 -x {1.0 3.0 2 ------- null}
- -t 1.002 -s 1 -d 2 -p cbr -e 50 -c 0 -i 3 -a 0 -x {1.0 3.0 2 ------- null}
h -t 1.002 -s 1 -d 2 -p cbr -e 50 -c 0 -i 3 -a 0 -x {1.0 3.0 -1 ------- null}
r -t 1.00226666666667 -s 1 -d 2 -p cbr -e 50 -c 0 -i 1 -a 0 -x {1.0 3.0 0 ------- null}
+ -t 1.00226666666667 -s 2 -d 3 -p cbr -e 50 -c 0 -i 1 -a 0 -x {1.0 3.0 0 ------- null}
- -t 1.00226666666667 -s 2 -d 3 -p cbr -e 50 -c 0 -i 1 -a 0 -x {1.0 3.0 0 ------- null}
h -t 1.00226666666667 -s 2 -d 3 -p cbr -e 50 -c 0 -i 1 -a 0 -x {1.0 3.0 -1 ------- null}
+ -t 1.003 -s 1 -d 2 -p cbr -e 50 -c 0 -i 4 -a 0 -x {1.0 3.0 3 ------- null}
- -t 1.003 -s 1 -d 2 -p cbr -e 50 -c 0 -i 4 -a 0 -x {1.0 3.0 3 ------- null}
h -t 1.003 -s 1 -d 2 -p cbr -e 50 -c 0 -i 4 -a 0 -x {1.0 3.0 -1 ------- null}
+ -t 1.003 -s 0 -d 2 -p cbr -e 50 -c 0 -i 5 -a 0 -x {0.0 3.0 1 ------- null}
- -t 1.003 -s 0 -d 2 -p cbr -e 50 -c 0 -i 5 -a 0 -x {0.0 3.0 1 ------- null}
h -t 1.003 -s 0 -d 2 -p cbr -e 50 -c 0 -i 5 -a 0 -x {0.0 3.0 -1 ------- null}
r -t 1.00326666666667 -s 1 -d 2 -p cbr -e 50 -c 0 -i 2 -a 0 -x {1.0 3.0 1 ------- null}
+ -t 1.00326666666667 -s 2 -d 3 -p cbr -e 50 -c 0 -i 2 -a 0 -x {1.0 3.0 1 ------- null}
- -t 1.00326666666667 -s 2 -d 3 -p cbr -e 50 -c 0 -i 2 -a 0 -x {1.0 3.0 1 ------- null}
h -t 1.00326666666667 -s 2 -d 3 -p cbr -e 50 -c 0 -i 2 -a 0 -x {1.0 3.0 -1 ------- null}
r -t 1.00383333333333 -s 2 -d 3 -p cbr -e 50 -c 0 -i 0 -a 0 -x {0.0 3.0 0 ------- null}
+ -t 1.004 -s 1 -d 2 -p cbr -e 50 -c 0 -i 6 -a 0 -x {1.0 3.0 4 ------- null}
- -t 1.004 -s 1 -d 2 -p cbr -e 50 -c 0 -i 6 -a 0 -x {1.0 3.0 4 ------- null}
h -t 1.004 -s 1 -d 2 -p cbr -e 50 -c 0 -i 6 -a 0 -x {1.0 3.0 -1 ------- null}
r -t 1.00426666666667 -s 1 -d 2 -p cbr -e 50 -c 0 -i 3 -a 0 -x {1.0 3.0 2 ------- null}
+ -t 1.00426666666667 -s 2 -d 3 -p cbr -e 50 -c 0 -i 3 -a 0 -x {1.0 3.0 2 ------- null}
- -t 1.00426666666667 -s 2 -d 3 -p cbr -e 50 -c 0 -i 3 -a 0 -x {1.0 3.0 2 ------- null}
h -t 1.00426666666667 -s 2 -d 3 -p cbr -e 50 -c 0 -i 3 -a 0 -x {1.0 3.0 -1 ------- null}
r -t 1.00446666666667 -s 2 -d 3 -p cbr -e 50 -c 0 -i 1 -a 0 -x {1.0 3.0 0 ------- null}
r -t 1.00463333333333 -s 0 -d 2 -p cbr -e 50 -c 0 -i 5 -a 0 -x {0.0 3.0 1 ------- null}
+ -t 1.00463333333333 -s 2 -d 3 -p cbr -e 50 -c 0 -i 5 -a 0 -x {0.0 3.0 1 ------- null}
- -t 1.00463333333333 -s 2 -d 3 -p cbr -e 50 -c 0 -i 5 -a 0 -x {0.0 3.0 1 ------- null}
h -t 1.00463333333333 -s 2 -d 3 -p cbr -e 50 -c 0 -i 5 -a 0 -x {0.0 3.0 -1 ------- null}
+ -t 1.005 -s 1 -d 2 -p cbr -e 50 -c 0 -i 7 -a 0 -x {1.0 3.0 5 ------- null}
- -t 1.005 -s 1 -d 2 -p cbr -e 50 -c 0 -i 7 -a 0 -x {1.0 3.0 5 ------- null}
h -t 1.005 -s 1 -d 2 -p cbr -e 50 -c 0 -i 7 -a 0 -x {1.0 3.0 -1 ------- null}
r -t 1.00526666666667 -s 1 -d 2 -p cbr -e 50 -c 0 -i 4 -a 0 -x {1.0 3.0 3 ------- null}
+ -t 1.00526666666667 -s 2 -d 3 -p cbr -e 50 -c 0 -i 4 -a 0 -x {1.0 3.0 3 ------- null}
- -t 1.00526666666667 -s 2 -d 3 -p cbr -e 50 -c 0 -i 4 -a 0 -x {1.0 3.0 3 ------- null}
h -t 1.00526666666667 -s 2 -d 3 -p cbr -e 50 -c 0 -i 4 -a 0 -x {1.0 3.0 -1 ------- null}
r -t 1.00546666666667 -s 2 -d 3 -p cbr -e 50 -c 0 -i 2 -a 0 -x {1.0 3.0 1 ------- null}
+ -t 1.006 -s 1 -d 2 -p cbr -e 50 -c 0 -i 8 -a 0 -x {1.0 3.0 6 ------- null}
- -t 1.006 -s 1 -d 2 -p cbr -e 50 -c 0 -i 8 -a 0 -x {1.0 3.0 6 ------- null}
h -t 1.006 -s 1 -d 2 -p cbr -e 50 -c 0 -i 8 -a 0 -x {1.0 3.0 -1 ------- null}
+ -t 1.006 -s 0 -d 2 -p cbr -e 50 -c 0 -i 9 -a 0 -x {0.0 3.0 2 ------- null}
- -t 1.006 -s 0 -d 2 -p cbr -e 50 -c 0 -i 9 -a 0 -x {0.0 3.0 2 ------- null}
h -t 1.006 -s 0 -d 2 -p cbr -e 50 -c 0 -i 9 -a 0 -x {0.0 3.0 -1 ------- null}
r -t 1.00626666666667 -s 1 -d 2 -p cbr -e 50 -c 0 -i 6 -a 0 -x {1.0 3.0 4 ------- null}
+ -t 1.00626666666667 -s 2 -d 3 -p cbr -e 50 -c 0 -i 6 -a 0 -x {1.0 3.0 4 ------- null}
- -t 1.00626666666667 -s 2 -d 3 -p cbr -e 50 -c 0 -i 6 -a 0 -x {1.0 3.0 4 ------- null}
h -t 1.00626666666667 -s 2 -d 3 -p cbr -e 50 -c 0 -i 6 -a 0 -x {1.0 3.0 -1 ------- null}
r -t 1.00646666666667 -s 2 -d 3 -p cbr -e 50 -c 0 -i 3 -a 0 -x {1.0 3.0 2 ------- null}
r -t 1.00683333333333 -s 2 -d 3 -p cbr -e 50 -c 0 -i 5 -a 0 -x {0.0 3.0 1 ------- null}
+ -t 1.007 -s 1 -d 2 -p cbr -e 50 -c 0 -i 10 -a 0 -x {1.0 3.0 7 ------- null}
- -t 1.007 -s 1 -d 2 -p cbr -e 50 -c 0 -i 10 -a 0 -x {1.0 3.0 7 ------- null}
h -t 1.007 -s 1 -d 2 -p cbr -e 50 -c 0 -i 10 -a 0 -x {1.0 3.0 -1 ------- null}
r -t 1.00726666666667 -s 1 -d 2 -p cbr -e 50 -c 0 -i 7 -a 0 -x {1.0 3.0 5 ------- null}
+ -t 1.00726666666667 -s 2 -d 3 -p cbr -e 50 -c 0 -i 7 -a 0 -x {1.0 3.0 5 ------- null}
- -t 1.00726666666667 -s 2 -d 3 -p cbr -e 50 -c 0 -i 7 -a 0 -x {1.0 3.0 5 ------- null}
h -t 1.00726666666667 -s 2 -d 3 -p cbr -e 50 -c 0 -i 7 -a 0 -x {1.0 3.0 -1 ------- null}
r -t 1.00746666666667 -s 2 -d 3 -p cbr -e 50 -c 0 -i 4 -a 0 -x {1.0 3.0 3 ------- null}
r -t 1.00763333333333 -s 0 -d 2 -p cbr -e 50 -c 0 -i 9 -a 0 -x {0.0 3.0 2 ------- null}
+ -t 1.00763333333333 -s 2 -d 3 -p cbr -e 50 -c 0 -i 9 -a 0 -x {0.0 3.0 2 ------- null}
- -t 1.00763333333333 -s 2 -d 3 -p cbr -e 50 -c 0 -i 9 -a 0 -x {0.0 3.0 2 ------- null}
h -t 1.00763333333333 -s 2 -d 3 -p cbr -e 50 -c 0 -i 9 -a 0 -x {0.0 3.0 -1 ------- null}
+ -t 1.008 -s 1 -d 2 -p cbr -e 50 -c 0 -i 11 -a 0 -x {1.0 3.0 8 ------- null}
- -t 1.008 -s 1 -d 2 -p cbr -e 50 -c 0 -i 11 -a 0 -x {1.0 3.0 8 ------- null}
h -t 1.008 -s 1 -d 2 -p cbr -e 50 -c 0 -i 11 -a 0 -x {1.0 3.0 -1 ------- null}
r -t 1.00826666666667 -s 1 -d 2 -p cbr -e 50 -c 0 -i 8 -a 0 -x {1.0 3.0 6 ------- null}
+ -t 1.00826666666667 -s 2 -d 3 -p cbr -e 50 -c 0 -i 8 -a 0 -x {1.0 3.0 6 ------- null}
- -t 1.00826666666667 -s 2 -d 3 -p cbr -e 50 -c 0 -i 8 -a 0 -x {1.0 3.0 6 ------- null}
h -t 1.00826666666667 -s 2 -d 3 -p cbr -e 50 -c 0 -i 8 -a 0 -x {1.0 3.0 -1 ------- null}
r -t 1.00846666666667 -s 2 -d 3 -p cbr -e 50 -c 0 -i 6 -a 0 -x {1.0 3.0 4 ------- null}
+ -t 1.009 -s 1 -d 2 -p cbr -e 50 -c 0 -i 12 -a 0 -x {1.0 3.0 9 ------- null}
- -t 1.009 -s 1 -d 2 -p cbr -e 50 -c 0 -i 12 -a 0 -x {1.0 3.0 9 ------- null}
h -t 1.009 -s 1 -d 2 -p cbr -e 50 -c 0 -i 12 -a 0 -x {1.0 3.0 -1 ------- null}
+ -t 1.009 -s 0 -d 2 -p cbr -e 50 -c 0 -i 13 -a 0 -x {0.0 3.0 3 ------- null}
- -t 1.009 -s 0 -d 2 -p cbr -e 50 -c 0 -i 13 -a 0 -x {0.0 3.0 3 ------- null}
h -t 1.009 -s 0 -d 2 -p cbr -e 50 -c 0 -i 13 -a 0 -x {0.0 3.0 -1 ------- null}
r -t 1.00926666666667 -s 1 -d 2 -p cbr -e 50 -c 0 -i 10 -a 0 -x {1.0 3.0 7 ------- null}
+ -t 1.00926666666667 -s 2 -d 3 -p cbr -e 50 -c 0 -i 10 -a 0 -x {1.0 3.0 7 ------- null}
- -t 1.00926666666667 -s 2 -d 3 -p cbr -e 50 -c 0 -i 10 -a 0 -x {1.0 3.0 7 ------- null}
h -t 1.00926666666667 -s 2 -d 3 -p cbr -e 50 -c 0 -i 10 -a 0 -x {1.0 3.0 -1 ------- null}
r -t 1.00946666666667 -s 2 -d 3 -p cbr -e 50 -c 0 -i 7 -a 0 -x {1.0 3.0 5 ------- null}
r -t 1.00983333333333 -s 2 -d 3 -p cbr -e 50 -c 0 -i 9 -a 0 -x {0.0 3.0 2 ------- null}
+ -t 1.01 -s 1 -d 2 -p cbr -e 50 -c 0 -i 14 -a 0 -x {1.0 3.0 10 ------- null}
- -t 1.01 -s 1 -d 2 -p cbr -e 50 -c 0 -i 14 -a 0 -x {1.0 3.0 10 ------- null}
h -t 1.01 -s 1 -d 2 -p cbr -e 50 -c 0 -i 14 -a 0 -x {1.0 3.0 -1 ------- null}
r -t 1.01026666666667 -s 1 -d 2 -p cbr -e 50 -c 0 -i 11 -a 0 -x {1.0 3.0 8 ------- null}
+ -t 1.01026666666667 -s 2 -d 3 -p cbr -e 50 -c 0 -i 11 -a 0 -x {1.0 3.0 8 ------- null}
- -t 1.01026666666667 -s 2 -d 3 -p cbr -e 50 -c 0 -i 11 -a 0 -x {1.0 3.0 8 ------- null}
h -t 1.01026666666667 -s 2 -d 3 -p cbr -e 50 -c 0 -i 11 -a 0 -x {1.0 3.0 -1 ------- null}
r -t 1.01046666666667 -s 2 -d 3 -p cbr -e 50 -c 0 -i 8 -a 0 -x {1.0 3.0 6 ------- null}
r -t 1.01063333333333 -s 0 -d 2 -p cbr -e 50 -c 0 -i 13 -a 0 -x {0.0 3.0 3 ------- null}
+ -t 1.01063333333333 -s 2 -d 3 -p cbr -e 50 -c 0 -i 13 -a 0 -x {0.0 3.0 3 ------- null}
- -t 1.01063333333333 -s 2 -d 3 -p cbr -e 50 -c 0 -i 13 -a 0 -x {0.0 3.0 3 ------- null}
h -t 1.01063333333333 -s 2 -d 3 -p cbr -e 50 -c 0 -i 13 -a 0 -x {0.0 3.0 -1 ------- null}
+ -t 1.011 -s 1 -d 2 -p cbr -e 50 -c 0 -i 15 -a 0 -x {1.0 3.0 11 ------- null}
- -t 1.011 -s 1 -d 2 -p cbr -e 50 -c 0 -i 15 -a 0 -x {1.0 3.0 11 ------- null}
h -t 1.011 -s 1 -d 2 -p cbr -e 50 -c 0 -i 15 -a 0 -x {1.0 3.0 -1 ------- null}
r -t 1.01126666666667 -s 1 -d 2 -p cbr -e 50 -c 0 -i 12 -a 0 -x {1.0 3.0 9 ------- null}
+ -t 1.01126666666667 -s 2 -d 3 -p cbr -e 50 -c 0 -i 12 -a 0 -x {1.0 3.0 9 ------- null}
- -t 1.01126666666667 -s 2 -d 3 -p cbr -e 50 -c 0 -i 12 -a 0 -x {1.0 3.0 9 ------- null}
h -t 1.01126666666667 -s 2 -d 3 -p cbr -e 50 -c 0 -i 12 -a 0 -x {1.0 3.0 -1 ------- null}
r -t 1.01146666666667 -s 2 -d 3 -p cbr -e 50 -c 0 -i 10 -a 0 -x {1.0 3.0 7 ------- null}
+ -t 1.012 -s 1 -d 2 -p cbr -e 50 -c 0 -i 16 -a 0 -x {1.0 3.0 12 ------- null}
- -t 1.012 -s 1 -d 2 -p cbr -e 50 -c 0 -i 16 -a 0 -x {1.0 3.0 12 ------- null}
h -t 1.012 -s 1 -d 2 -p cbr -e 50 -c 0 -i 16 -a 0 -x {1.0 3.0 -1 ------- null}
+ -t 1.012 -s 0 -d 2 -p cbr -e 50 -c 0 -i 17 -a 0 -x {0.0 3.0 4 ------- null}
- -t 1.012 -s 0 -d 2 -p cbr -e 50 -c 0 -i 17 -a 0 -x {0.0 3.0 4 ------- null}
h -t 1.012 -s 0 -d 2 -p cbr -e 50 -c 0 -i 17 -a 0 -x {0.0 3.0 -1 ------- null}
r -t 1.01226666666667 -s 1 -d 2 -p cbr -e 50 -c 0 -i 14 -a 0 -x {1.0 3.0 10 ------- null}
+ -t 1.01226666666667 -s 2 -d 3 -p cbr -e 50 -c 0 -i 14 -a 0 -x {1.0 3.0 10 ------- null}
- -t 1.01226666666667 -s 2 -d 3 -p cbr -e 50 -c 0 -i 14 -a 0 -x {1.0 3.0 10 ------- null}
h -t 1.01226666666667 -s 2 -d 3 -p cbr -e 50 -c 0 -i 14 -a 0 -x {1.0 3.0 -1 ------- null}
r -t 1.01246666666667 -s 2 -d 3 -p cbr -e 50 -c 0 -i 11 -a 0 -x {1.0 3.0 8 ------- null}
r -t 1.01283333333333 -s 2 -d 3 -p cbr -e 50 -c 0 -i 13 -a 0 -x {0.0 3.0 3 ------- null}
+ -t 1.013 -s 1 -d 2 -p cbr -e 50 -c 0 -i 18 -a 0 -x {1.0 3.0 13 ------- null}
- -t 1.013 -s 1 -d 2 -p cbr -e 50 -c 0 -i 18 -a 0 -x {1.0 3.0 13 ------- null}
h -t 1.013 -s 1 -d 2 -p cbr -e 50 -c 0 -i 18 -a 0 -x {1.0 3.0 -1 ------- null}
r -t 1.01326666666667 -s 1 -d 2 -p cbr -e 50 -c 0 -i 15 -a 0 -x {1.0 3.0 11 ------- null}
+ -t 1.01326666666667 -s 2 -d 3 -p cbr -e 50 -c 0 -i 15 -a 0 -x {1.0 3.0 11 ------- null}
- -t 1.01326666666667 -s 2 -d 3 -p cbr -e 50 -c 0 -i 15 -a 0 -x {1.0 3.0 11 ------- null}
h -t 1.01326666666667 -s 2 -d 3 -p cbr -e 50 -c 0 -i 15 -a 0 -x {1.0 3.0 -1 ------- null}
r -t 1.01346666666667 -s 2 -d 3 -p cbr -e 50 -c 0 -i 12 -a 0 -x {1.0 3.0 9 ------- null}
r -t 1.01363333333333 -s 0 -d 2 -p cbr -e 50 -c 0 -i 17 -a 0 -x {0.0 3.0 4 ------- null}
+ -t 1.01363333333333 -s 2 -d 3 -p cbr -e 50 -c 0 -i 17 -a 0 -x {0.0 3.0 4 ------- null}
- -t 1.01363333333333 -s 2 -d 3 -p cbr -e 50 -c 0 -i 17 -a 0 -x {0.0 3.0 4 ------- null}
h -t 1.01363333333333 -s 2 -d 3 -p cbr -e 50 -c 0 -i 17 -a 0 -x {0.0 3.0 -1 ------- null}
+ -t 1.014 -s 1 -d 2 -p cbr -e 50 -c 0 -i 19 -a 0 -x {1.0 3.0 14 ------- null}
- -t 1.014 -s 1 -d 2 -p cbr -e 50 -c 0 -i 19 -a 0 -x {1.0 3.0 14 ------- null}
h -t 1.014 -s 1 -d 2 -p cbr -e 50 -c 0 -i 19 -a 0 -x {1.0 3.0 -1 ------- null}
r -t 1.01426666666667 -s 1 -d 2 -p cbr -e 50 -c 0 -i 16 -a 0 -x {1.0 3.0 12 ------- null}
+ -t 1.01426666666667 -s 2 -d 3 -p cbr -e 50 -c 0 -i 16 -a 0 -x {1.0 3.0 12 ------- null}
- -t 1.01426666666667 -s 2 -d 3 -p cbr -e 50 -c 0 -i 16 -a 0 -x {1.0 3.0 12 ------- null}
h -t 1.01426666666667 -s 2 -d 3 -p cbr -e 50 -c 0 -i 16 -a 0 -x {1.0 3.0 -1 ------- null}
r -t 1.01446666666667 -s 2 -d 3 -p cbr -e 50 -c 0 -i 14 -a 0 -x {1.0 3.0 10 ------- null}
+ -t 1.015 -s 1 -d 2 -p cbr -e 50 -c 0 -i 20 -a 0 -x {1.0 3.0 15 ------- null}
- -t 1.015 -s 1 -d 2 -p cbr -e 50 -c 0 -i 20 -a 0 -x {1.0 3.0 15 ------- null}
h -t 1.015 -s 1 -d 2 -p cbr -e 50 -c 0 -i 20 -a 0 -x {1.0 3.0 -1 ------- null}
+ -t 1.015 -s 0 -d 2 -p cbr -e 50 -c 0 -i 21 -a 0 -x {0.0 3.0 5 ------- null}
- -t 1.015 -s 0 -d 2 -p cbr -e 50 -c 0 -i 21 -a 0 -x {0.0 3.0 5 ------- null}
h -t 1.015 -s 0 -d 2 -p cbr -e 50 -c 0 -i 21 -a 0 -x {0.0 3.0 -1 ------- null}
r -t 1.01526666666667 -s 1 -d 2 -p cbr -e 50 -c 0 -i 18 -a 0 -x {1.0 3.0 13 ------- null}
+ -t 1.01526666666667 -s 2 -d 3 -p cbr -e 50 -c 0 -i 18 -a 0 -x {1.0 3.0 13 ------- null}
- -t 1.01526666666667 -s 2 -d 3 -p cbr -e 50 -c 0 -i 18 -a 0 -x {1.0 3.0 13 ------- null}
h -t 1.01526666666667 -s 2 -d 3 -p cbr -e 50 -c 0 -i 18 -a 0 -x {1.0 3.0 -1 ------- null}
r -t 1.01546666666667 -s 2 -d 3 -p cbr -e 50 -c 0 -i 15 -a 0 -x {1.0 3.0 11 ------- null}
r -t 1.01583333333333 -s 2 -d 3 -p cbr -e 50 -c 0 -i 17 -a 0 -x {0.0 3.0 4 ------- null}
+ -t 1.016 -s 1 -d 2 -p cbr -e 50 -c 0 -i 22 -a 0 -x {1.0 3.0 16 ------- null}
- -t 1.016 -s 1 -d 2 -p cbr -e 50 -c 0 -i 22 -a 0 -x {1.0 3.0 16 ------- null}
h -t 1.016 -s 1 -d 2 -p cbr -e 50 -c 0 -i 22 -a 0 -x {1.0 3.0 -1 ------- null}
r -t 1.01626666666667 -s 1 -d 2 -p cbr -e 50 -c 0 -i 19 -a 0 -x {1.0 3.0 14 ------- null}
+ -t 1.01626666666667 -s 2 -d 3 -p cbr -e 50 -c 0 -i 19 -a 0 -x {1.0 3.0 14 ------- null}
- -t 1.01626666666667 -s 2 -d 3 -p cbr -e 50 -c 0 -i 19 -a 0 -x {1.0 3.0 14 ------- null}
h -t 1.01626666666667 -s 2 -d 3 -p cbr -e 50 -c 0 -i 19 -a 0 -x {1.0 3.0 -1 ------- null}
r -t 1.01646666666667 -s 2 -d 3 -p cbr -e 50 -c 0 -i 16 -a 0 -x {1.0 3.0 12 ------- null}
r -t 1.01663333333333 -s 0 -d 2 -p cbr -e 50 -c 0 -i 21 -a 0 -x {0.0 3.0 5 ------- null}
+ -t 1.01663333333333 -s 2 -d 3 -p cbr -e 50 -c 0 -i 21 -a 0 -x {0.0 3.0 5 ------- null}
- -t 1.01663333333333 -s 2 -d 3 -p cbr -e 50 -c 0 -i 21 -a 0 -x {0.0 3.0 5 ------- null}
h -t 1.01663333333333 -s 2 -d 3 -p cbr -e 50 -c 0 -i 21 -a 0 -x {0.0 3.0 -1 ------- null}
+ -t 1.017 -s 1 -d 2 -p cbr -e 50 -c 0 -i 23 -a 0 -x {1.0 3.0 17 ------- null}
- -t 1.017 -s 1 -d 2 -p cbr -e 50 -c 0 -i 23 -a 0 -x {1.0 3.0 17 ------- null}
h -t 1.017 -s 1 -d 2 -p cbr -e 50 -c 0 -i 23 -a 0 -x {1.0 3.0 -1 ------- null}
r -t 1.01726666666666 -s 1 -d 2 -p cbr -e 50 -c 0 -i 20 -a 0 -x {1.0 3.0 15 ------- null}
+ -t 1.01726666666666 -s 2 -d 3 -p cbr -e 50 -c 0 -i 20 -a 0 -x {1.0 3.0 15 ------- null}
- -t 1.01726666666666 -s 2 -d 3 -p cbr -e 50 -c 0 -i 20 -a 0 -x {1.0 3.0 15 ------- null}
h -t 1.01726666666666 -s 2 -d 3 -p cbr -e 50 -c 0 -i 20 -a 0 -x {1.0 3.0 -1 ------- null}
r -t 1.01746666666667 -s 2 -d 3 -p cbr -e 50 -c 0 -i 18 -a 0 -x {1.0 3.0 13 ------- null}
+ -t 1.018 -s 1 -d 2 -p cbr -e 50 -c 0 -i 24 -a 0 -x {1.0 3.0 18 ------- null}
- -t 1.018 -s 1 -d 2 -p cbr -e 50 -c 0 -i 24 -a 0 -x {1.0 3.0 18 ------- null}
h -t 1.018 -s 1 -d 2 -p cbr -e 50 -c 0 -i 24 -a 0 -x {1.0 3.0 -1 ------- null}
+ -t 1.018 -s 0 -d 2 -p cbr -e 50 -c 0 -i 25 -a 0 -x {0.0 3.0 6 ------- null}
- -t 1.018 -s 0 -d 2 -p cbr -e 50 -c 0 -i 25 -a 0 -x {0.0 3.0 6 ------- null}
h -t 1.018 -s 0 -d 2 -p cbr -e 50 -c 0 -i 25 -a 0 -x {0.0 3.0 -1 ------- null}
r -t 1.01826666666666 -s 1 -d 2 -p cbr -e 50 -c 0 -i 22 -a 0 -x {1.0 3.0 16 ------- null}
+ -t 1.01826666666666 -s 2 -d 3 -p cbr -e 50 -c 0 -i 22 -a 0 -x {1.0 3.0 16 ------- null}
- -t 1.01826666666666 -s 2 -d 3 -p cbr -e 50 -c 0 -i 22 -a 0 -x {1.0 3.0 16 ------- null}
h -t 1.01826666666666 -s 2 -d 3 -p cbr -e 50 -c 0 -i 22 -a 0 -x {1.0 3.0 -1 ------- null}
r -t 1.01846666666667 -s 2 -d 3 -p cbr -e 50 -c 0 -i 19 -a 0 -x {1.0 3.0 14 ------- null}
r -t 1.01883333333333 -s 2 -d 3 -p cbr -e 50 -c 0 -i 21 -a 0 -x {0.0 3.0 5 ------- null}
+ -t 1.019 -s 1 -d 2 -p cbr -e 50 -c 0 -i 26 -a 0 -x {1.0 3.0 19 ------- null}
- -t 1.019 -s 1 -d 2 -p cbr -e 50 -c 0 -i 26 -a 0 -x {1.0 3.0 19 ------- null}
h -t 1.019 -s 1 -d 2 -p cbr -e 50 -c 0 -i 26 -a 0 -x {1.0 3.0 -1 ------- null}
r -t 1.01926666666666 -s 1 -d 2 -p cbr -e 50 -c 0 -i 23 -a 0 -x {1.0 3.0 17 ------- null}
+ -t 1.01926666666666 -s 2 -d 3 -p cbr -e 50 -c 0 -i 23 -a 0 -x {1.0 3.0 17 ------- null}
- -t 1.01926666666666 -s 2 -d 3 -p cbr -e 50 -c 0 -i 23 -a 0 -x {1.0 3.0 17 ------- null}
h -t 1.01926666666666 -s 2 -d 3 -p cbr -e 50 -c 0 -i 23 -a 0 -x {1.0 3.0 -1 ------- null}
r -t 1.01946666666666 -s 2 -d 3 -p cbr -e 50 -c 0 -i 20 -a 0 -x {1.0 3.0 15 ------- null}
r -t 1.01963333333333 -s 0 -d 2 -p cbr -e 50 -c 0 -i 25 -a 0 -x {0.0 3.0 6 ------- null}
+ -t 1.01963333333333 -s 2 -d 3 -p cbr -e 50 -c 0 -i 25 -a 0 -x {0.0 3.0 6 ------- null}
- -t 1.01963333333333 -s 2 -d 3 -p cbr -e 50 -c 0 -i 25 -a 0 -x {0.0 3.0 6 ------- null}
h -t 1.01963333333333 -s 2 -d 3 -p cbr -e 50 -c 0 -i 25 -a 0 -x {0.0 3.0 -1 ------- null}
+ -t 1.02 -s 1 -d 2 -p cbr -e 50 -c 0 -i 27 -a 0 -x {1.0 3.0 20 ------- null}
- -t 1.02 -s 1 -d 2 -p cbr -e 50 -c 0 -i 27 -a 0 -x {1.0 3.0 20 ------- null}
h -t 1.02 -s 1 -d 2 -p cbr -e 50 -c 0 -i 27 -a 0 -x {1.0 3.0 -1 ------- null}
r -t 1.02026666666666 -s 1 -d 2 -p cbr -e 50 -c 0 -i 24 -a 0 -x {1.0 3.0 18 ------- null}
+ -t 1.02026666666666 -s 2 -d 3 -p cbr -e 50 -c 0 -i 24 -a 0 -x {1.0 3.0 18 ------- null}
- -t 1.02026666666666 -s 2 -d 3 -p cbr -e 50 -c 0 -i 24 -a 0 -x {1.0 3.0 18 ------- null}
h -t 1.02026666666666 -s 2 -d 3 -p cbr -e 50 -c 0 -i 24 -a 0 -x {1.0 3.0 -1 ------- null}
r -t 1.02046666666666 -s 2 -d 3 -p cbr -e 50 -c 0 -i 22 -a 0 -x {1.0 3.0 16 ------- null}
+ -t 1.021 -s 1 -d 2 -p cbr -e 50 -c 0 -i 28 -a 0 -x {1.0 3.0 21 ------- null}
- -t 1.021 -s 1 -d 2 -p cbr -e 50 -c 0 -i 28 -a 0 -x {1.0 3.0 21 ------- null}
h -t 1.021 -s 1 -d 2 -p cbr -e 50 -c 0 -i 28 -a 0 -x {1.0 3.0 -1 ------- null}
+ -t 1.021 -s 0 -d 2 -p cbr -e 50 -c 0 -i 29 -a 0 -x {0.0 3.0 7 ------- null}
- -t 1.021 -s 0 -d 2 -p cbr -e 50 -c 0 -i 29 -a 0 -x {0.0 3.0 7 ------- null}
h -t 1.021 -s 0 -d 2 -p cbr -e 50 -c 0 -i 29 -a 0 -x {0.0 3.0 -1 ------- null}
r -t 1.02126666666666 -s 1 -d 2 -p cbr -e 50 -c 0 -i 26 -a 0 -x {1.0 3.0 19 ------- null}
+ -t 1.02126666666666 -s 2 -d 3 -p cbr -e 50 -c 0 -i 26 -a 0 -x {1.0 3.0 19 ------- null}
- -t 1.02126666666666 -s 2 -d 3 -p cbr -e 50 -c 0 -i 26 -a 0 -x {1.0 3.0 19 ------- null}
h -t 1.02126666666666 -s 2 -d 3 -p cbr -e 50 -c 0 -i 26 -a 0 -x {1.0 3.0 -1 ------- null}
r -t 1.02146666666666 -s 2 -d 3 -p cbr -e 50 -c 0 -i 23 -a 0 -x {1.0 3.0 17 ------- null}
r -t 1.02183333333333 -s 2 -d 3 -p cbr -e 50 -c 0 -i 25 -a 0 -x {0.0 3.0 6 ------- null}
+ -t 1.022 -s 1 -d 2 -p cbr -e 50 -c 0 -i 30 -a 0 -x {1.0 3.0 22 ------- null}
- -t 1.022 -s 1 -d 2 -p cbr -e 50 -c 0 -i 30 -a 0 -x {1.0 3.0 22 ------- null}
h -t 1.022 -s 1 -d 2 -p cbr -e 50 -c 0 -i 30 -a 0 -x {1.0 3.0 -1 ------- null}
r -t 1.02226666666666 -s 1 -d 2 -p cbr -e 50 -c 0 -i 27 -a 0 -x {1.0 3.0 20 ------- null}
+ -t 1.02226666666666 -s 2 -d 3 -p cbr -e 50 -c 0 -i 27 -a 0 -x {1.0 3.0 20 ------- null}
- -t 1.02226666666666 -s 2 -d 3 -p cbr -e 50 -c 0 -i 27 -a 0 -x {1.0 3.0 20 ------- null}
h -t 1.02226666666666 -s 2 -d 3 -p cbr -e 50 -c 0 -i 27 -a 0 -x {1.0 3.0 -1 ------- null}
r -t 1.02246666666666 -s 2 -d 3 -p cbr -e 50 -c 0 -i 24 -a 0 -x {1.0 3.0 18 ------- null}
r -t 1.02263333333333 -s 0 -d 2 -p cbr -e 50 -c 0 -i 29 -a 0 -x {0.0 3.0 7 ------- null}
+ -t 1.02263333333333 -s 2 -d 3 -p cbr -e 50 -c 0 -i 29 -a 0 -x {0.0 3.0 7 ------- null}
- -t 1.02263333333333 -s 2 -d 3 -p cbr -e 50 -c 0 -i 29 -a 0 -x {0.0 3.0 7 ------- null}
h -t 1.02263333333333 -s 2 -d 3 -p cbr -e 50 -c 0 -i 29 -a 0 -x {0.0 3.0 -1 ------- null}
+ -t 1.023 -s 1 -d 2 -p cbr -e 50 -c 0 -i 31 -a 0 -x {1.0 3.0 23 ------- null}
- -t 1.023 -s 1 -d 2 -p cbr -e 50 -c 0 -i 31 -a 0 -x {1.0 3.0 23 ------- null}
h -t 1.023 -s 1 -d 2 -p cbr -e 50 -c 0 -i 31 -a 0 -x {1.0 3.0 -1 ------- null}
r -t 1.02326666666666 -s 1 -d 2 -p cbr -e 50 -c 0 -i 28 -a 0 -x {1.0 3.0 21 ------- null}
+ -t 1.02326666666666 -s 2 -d 3 -p cbr -e 50 -c 0 -i 28 -a 0 -x {1.0 3.0 21 ------- null}
- -t 1.02326666666666 -s 2 -d 3 -p cbr -e 50 -c 0 -i 28 -a 0 -x {1.0 3.0 21 ------- null}
h -t 1.02326666666666 -s 2 -d 3 -p cbr -e 50 -c 0 -i 28 -a 0 -x {1.0 3.0 -1 ------- null}
r -t 1.02346666666666 -s 2 -d 3 -p cbr -e 50 -c 0 -i 26 -a 0 -x {1.0 3.0 19 ------- null}
+ -t 1.024 -s 1 -d 2 -p cbr -e 50 -c 0 -i 32 -a 0 -x {1.0 3.0 24 ------- null}
- -t 1.024 -s 1 -d 2 -p cbr -e 50 -c 0 -i 32 -a 0 -x {1.0 3.0 24 ------- null}
h -t 1.024 -s 1 -d 2 -p cbr -e 50 -c 0 -i 32 -a 0 -x {1.0 3.0 -1 ------- null}
+ -t 1.024 -s 0 -d 2 -p cbr -e 50 -c 0 -i 33 -a 0 -x {0.0 3.0 8 ------- null}
- -t 1.024 -s 0 -d 2 -p cbr -e 50 -c 0 -i 33 -a 0 -x {0.0 3.0 8 ------- null}
h -t 1.024 -s 0 -d 2 -p cbr -e 50 -c 0 -i 33 -a 0 -x {0.0 3.0 -1 ------- null}
r -t 1.02426666666666 -s 1 -d 2 -p cbr -e 50 -c 0 -i 30 -a 0 -x {1.0 3.0 22 ------- null}
+ -t 1.02426666666666 -s 2 -d 3 -p cbr -e 50 -c 0 -i 30 -a 0 -x {1.0 3.0 22 ------- null}
- -t 1.02426666666666 -s 2 -d 3 -p cbr -e 50 -c 0 -i 30 -a 0 -x {1.0 3.0 22 ------- null}
h -t 1.02426666666666 -s 2 -d 3 -p cbr -e 50 -c 0 -i 30 -a 0 -x {1.0 3.0 -1 ------- null}
r -t 1.02446666666666 -s 2 -d 3 -p cbr -e 50 -c 0 -i 27 -a 0 -x {1.0 3.0 20 ------- null}
r -t 1.02483333333333 -s 2 -d 3 -p cbr -e 50 -c 0 -i 29 -a 0 -x {0.0 3.0 7 ------- null}
+ -t 1.025 -s 1 -d 2 -p cbr -e 50 -c 0 -i 34 -a 0 -x {1.0 3.0 25 ------- null}
- -t 1.025 -s 1 -d 2 -p cbr -e 50 -c 0 -i 34 -a 0 -x {1.0 3.0 25 ------- null}
h -t 1.025 -s 1 -d 2 -p cbr -e 50 -c 0 -i 34 -a 0 -x {1.0 3.0 -1 ------- null}
r -t 1.02526666666666 -s 1 -d 2 -p cbr -e 50 -c 0 -i 31 -a 0 -x {1.0 3.0 23 ------- null}
+ -t 1.02526666666666 -s 2 -d 3 -p cbr -e 50 -c 0 -i 31 -a 0 -x {1.0 3.0 23 ------- null}
- -t 1.02526666666666 -s 2 -d 3 -p cbr -e 50 -c 0 -i 31 -a 0 -x {1.0 3.0 23 ------- null}
h -t 1.02526666666666 -s 2 -d 3 -p cbr -e 50 -c 0 -i 31 -a 0 -x {1.0 3.0 -1 ------- null}
r -t 1.02546666666666 -s 2 -d 3 -p cbr -e 50 -c 0 -i 28 -a 0 -x {1.0 3.0 21 ------- null}
r -t 1.02563333333333 -s 0 -d 2 -p cbr -e 50 -c 0 -i 33 -a 0 -x {0.0 3.0 8 ------- null}
+ -t 1.02563333333333 -s 2 -d 3 -p cbr -e 50 -c 0 -i 33 -a 0 -x {0.0 3.0 8 ------- null}
- -t 1.02563333333333 -s 2 -d 3 -p cbr -e 50 -c 0 -i 33 -a 0 -x {0.0 3.0 8 ------- null}
h -t 1.02563333333333 -s 2 -d 3 -p cbr -e 50 -c 0 -i 33 -a 0 -x {0.0 3.0 -1 ------- null}
+ -t 1.026 -s 1 -d 2 -p cbr -e 50 -c 0 -i 35 -a 0 -x {1.0 3.0 26 ------- null}
- -t 1.026 -s 1 -d 2 -p cbr -e 50 -c 0 -i 35 -a 0 -x {1.0 3.0 26 ------- null}
h -t 1.026 -s 1 -d 2 -p cbr -e 50 -c 0 -i 35 -a 0 -x {1.0 3.0 -1 ------- null}
r -t 1.02626666666666 -s 1 -d 2 -p cbr -e 50 -c 0 -i 32 -a 0 -x {1.0 3.0 24 ------- null}
+ -t 1.02626666666666 -s 2 -d 3 -p cbr -e 50 -c 0 -i 32 -a 0 -x {1.0 3.0 24 ------- null}
- -t 1.02626666666666 -s 2 -d 3 -p cbr -e 50 -c 0 -i 32 -a 0 -x {1.0 3.0 24 ------- null}
h -t 1.02626666666666 -s 2 -d 3 -p cbr -e 50 -c 0 -i 32 -a 0 -x {1.0 3.0 -1 ------- null}
r -t 1.02646666666666 -s 2 -d 3 -p cbr -e 50 -c 0 -i 30 -a 0 -x {1.0 3.0 22 ------- null}
+ -t 1.027 -s 1 -d 2 -p cbr -e 50 -c 0 -i 36 -a 0 -x {1.0 3.0 27 ------- null}
- -t 1.027 -s 1 -d 2 -p cbr -e 50 -c 0 -i 36 -a 0 -x {1.0 3.0 27 ------- null}
h -t 1.027 -s 1 -d 2 -p cbr -e 50 -c 0 -i 36 -a 0 -x {1.0 3.0 -1 ------- null}
+ -t 1.027 -s 0 -d 2 -p cbr -e 50 -c 0 -i 37 -a 0 -x {0.0 3.0 9 ------- null}
- -t 1.027 -s 0 -d 2 -p cbr -e 50 -c 0 -i 37 -a 0 -x {0.0 3.0 9 ------- null}
h -t 1.027 -s 0 -d 2 -p cbr -e 50 -c 0 -i 37 -a 0 -x {0.0 3.0 -1 ------- null}
r -t 1.02726666666666 -s 1 -d 2 -p cbr -e 50 -c 0 -i 34 -a 0 -x {1.0 3.0 25 ------- null}
+ -t 1.02726666666666 -s 2 -d 3 -p cbr -e 50 -c 0 -i 34 -a 0 -x {1.0 3.0 25 ------- null}
- -t 1.02726666666666 -s 2 -d 3 -p cbr -e 50 -c 0 -i 34 -a 0 -x {1.0 3.0 25 ------- null}
h -t 1.02726666666666 -s 2 -d 3 -p cbr -e 50 -c 0 -i 34 -a 0 -x {1.0 3.0 -1 ------- null}
r -t 1.02746666666666 -s 2 -d 3 -p cbr -e 50 -c 0 -i 31 -a 0 -x {1.0 3.0 23 ------- null}
r -t 1.02783333333333 -s 2 -d 3 -p cbr -e 50 -c 0 -i 33 -a 0 -x {0.0 3.0 8 ------- null}
+ -t 1.028 -s 1 -d 2 -p cbr -e 50 -c 0 -i 38 -a 0 -x {1.0 3.0 28 ------- null}
- -t 1.028 -s 1 -d 2 -p cbr -e 50 -c 0 -i 38 -a 0 -x {1.0 3.0 28 ------- null}
h -t 1.028 -s 1 -d 2 -p cbr -e 50 -c 0 -i 38 -a 0 -x {1.0 3.0 -1 ------- null}
r -t 1.02826666666666 -s 1 -d 2 -p cbr -e 50 -c 0 -i 35 -a 0 -x {1.0 3.0 26 ------- null}
+ -t 1.02826666666666 -s 2 -d 3 -p cbr -e 50 -c 0 -i 35 -a 0 -x {1.0 3.0 26 ------- null}
- -t 1.02826666666666 -s 2 -d 3 -p cbr -e 50 -c 0 -i 35 -a 0 -x {1.0 3.0 26 ------- null}
h -t 1.02826666666666 -s 2 -d 3 -p cbr -e 50 -c 0 -i 35 -a 0 -x {1.0 3.0 -1 ------- null}
r -t 1.02846666666666 -s 2 -d 3 -p cbr -e 50 -c 0 -i 32 -a 0 -x {1.0 3.0 24 ------- null}
r -t 1.02863333333333 -s 0 -d 2 -p cbr -e 50 -c 0 -i 37 -a 0 -x {0.0 3.0 9 ------- null}
+ -t 1.02863333333333 -s 2 -d 3 -p cbr -e 50 -c 0 -i 37 -a 0 -x {0.0 3.0 9 ------- null}
- -t 1.02863333333333 -s 2 -d 3 -p cbr -e 50 -c 0 -i 37 -a 0 -x {0.0 3.0 9 ------- null}
h -t 1.02863333333333 -s 2 -d 3 -p cbr -e 50 -c 0 -i 37 -a 0 -x {0.0 3.0 -1 ------- null}
+ -t 1.029 -s 1 -d 2 -p cbr -e 50 -c 0 -i 39 -a 0 -x {1.0 3.0 29 ------- null}
- -t 1.029 -s 1 -d 2 -p cbr -e 50 -c 0 -i 39 -a 0 -x {1.0 3.0 29 ------- null}
h -t 1.029 -s 1 -d 2 -p cbr -e 50 -c 0 -i 39 -a 0 -x {1.0 3.0 -1 ------- null}
r -t 1.02926666666666 -s 1 -d 2 -p cbr -e 50 -c 0 -i 36 -a 0 -x {1.0 3.0 27 ------- null}
+ -t 1.02926666666666 -s 2 -d 3 -p cbr -e 50 -c 0 -i 36 -a 0 -x {1.0 3.0 27 ------- null}
- -t 1.02926666666666 -s 2 -d 3 -p cbr -e 50 -c 0 -i 36 -a 0 -x {1.0 3.0 27 ------- null}
h -t 1.02926666666666 -s 2 -d 3 -p cbr -e 50 -c 0 -i 36 -a 0 -x {1.0 3.0 -1 ------- null}
r -t 1.02946666666666 -s 2 -d 3 -p cbr -e 50 -c 0 -i 34 -a 0 -x {1.0 3.0 25 ------- null}
+ -t 1.03 -s 1 -d 2 -p cbr -e 50 -c 0 -i 40 -a 0 -x {1.0 3.0 30 ------- null}
- -t 1.03 -s 1 -d 2 -p cbr -e 50 -c 0 -i 40 -a 0 -x {1.0 3.0 30 ------- null}
h -t 1.03 -s 1 -d 2 -p cbr -e 50 -c 0 -i 40 -a 0 -x {1.0 3.0 -1 ------- null}
+ -t 1.03 -s 0 -d 2 -p cbr -e 50 -c 0 -i 41 -a 0 -x {0.0 3.0 10 ------- null}
- -t 1.03 -s 0 -d 2 -p cbr -e 50 -c 0 -i 41 -a 0 -x {0.0 3.0 10 ------- null}
h -t 1.03 -s 0 -d 2 -p cbr -e 50 -c 0 -i 41 -a 0 -x {0.0 3.0 -1 ------- null}
r -t 1.03026666666666 -s 1 -d 2 -p cbr -e 50 -c 0 -i 38 -a 0 -x {1.0 3.0 28 ------- null}
+ -t 1.03026666666666 -s 2 -d 3 -p cbr -e 50 -c 0 -i 38 -a 0 -x {1.0 3.0 28 ------- null}
- -t 1.03026666666666 -s 2 -d 3 -p cbr -e 50 -c 0 -i 38 -a 0 -x {1.0 3.0 28 ------- null}
h -t 1.03026666666666 -s 2 -d 3 -p cbr -e 50 -c 0 -i 38 -a 0 -x {1.0 3.0 -1 ------- null}
r -t 1.03046666666666 -s 2 -d 3 -p cbr -e 50 -c 0 -i 35 -a 0 -x {1.0 3.0 26 ------- null}
r -t 1.03083333333333 -s 2 -d 3 -p cbr -e 50 -c 0 -i 37 -a 0 -x {0.0 3.0 9 ------- null}
+ -t 1.031 -s 1 -d 2 -p cbr -e 50 -c 0 -i 42 -a 0 -x {1.0 3.0 31 ------- null}
- -t 1.031 -s 1 -d 2 -p cbr -e 50 -c 0 -i 42 -a 0 -x {1.0 3.0 31 ------- null}
h -t 1.031 -s 1 -d 2 -p cbr -e 50 -c 0 -i 42 -a 0 -x {1.0 3.0 -1 ------- null}
r -t 1.03126666666666 -s 1 -d 2 -p cbr -e 50 -c 0 -i 39 -a 0 -x {1.0 3.0 29 ------- null}
+ -t 1.03126666666666 -s 2 -d 3 -p cbr -e 50 -c 0 -i 39 -a 0 -x {1.0 3.0 29 ------- null}
- -t 1.03126666666666 -s 2 -d 3 -p cbr -e 50 -c 0 -i 39 -a 0 -x {1.0 3.0 29 ------- null}
h -t 1.03126666666666 -s 2 -d 3 -p cbr -e 50 -c 0 -i 39 -a 0 -x {1.0 3.0 -1 ------- null}
r -t 1.03146666666666 -s 2 -d 3 -p cbr -e 50 -c 0 -i 36 -a 0 -x {1.0 3.0 27 ------- null}
r -t 1.03163333333333 -s 0 -d 2 -p cbr -e 50 -c 0 -i 41 -a 0 -x {0.0 3.0 10 ------- null}
+ -t 1.03163333333333 -s 2 -d 3 -p cbr -e 50 -c 0 -i 41 -a 0 -x {0.0 3.0 10 ------- null}
- -t 1.03163333333333 -s 2 -d 3 -p cbr -e 50 -c 0 -i 41 -a 0 -x {0.0 3.0 10 ------- null}
h -t 1.03163333333333 -s 2 -d 3 -p cbr -e 50 -c 0 -i 41 -a 0 -x {0.0 3.0 -1 ------- null}
+ -t 1.032 -s 1 -d 2 -p cbr -e 50 -c 0 -i 43 -a 0 -x {1.0 3.0 32 ------- null}
- -t 1.032 -s 1 -d 2 -p cbr -e 50 -c 0 -i 43 -a 0 -x {1.0 3.0 32 ------- null}
h -t 1.032 -s 1 -d 2 -p cbr -e 50 -c 0 -i 43 -a 0 -x {1.0 3.0 -1 ------- null}
r -t 1.03226666666666 -s 1 -d 2 -p cbr -e 50 -c 0 -i 40 -a 0 -x {1.0 3.0 30 ------- null}
+ -t 1.03226666666666 -s 2 -d 3 -p cbr -e 50 -c 0 -i 40 -a 0 -x {1.0 3.0 30 ------- null}
- -t 1.03226666666666 -s 2 -d 3 -p cbr -e 50 -c 0 -i 40 -a 0 -x {1.0 3.0 30 ------- null}
h -t 1.03226666666666 -s 2 -d 3 -p cbr -e 50 -c 0 -i 40 -a 0 -x {1.0 3.0 -1 ------- null}
r -t 1.03246666666666 -s 2 -d 3 -p cbr -e 50 -c 0 -i 38 -a 0 -x {1.0 3.0 28 ------- null}
+ -t 1.033 -s 1 -d 2 -p cbr -e 50 -c 0 -i 44 -a 0 -x {1.0 3.0 33 ------- null}
- -t 1.033 -s 1 -d 2 -p cbr -e 50 -c 0 -i 44 -a 0 -x {1.0 3.0 33 ------- null}
h -t 1.033 -s 1 -d 2 -p cbr -e 50 -c 0 -i 44 -a 0 -x {1.0 3.0 -1 ------- null}
+ -t 1.033 -s 0 -d 2 -p cbr -e 50 -c 0 -i 45 -a 0 -x {0.0 3.0 11 ------- null}
- -t 1.033 -s 0 -d 2 -p cbr -e 50 -c 0 -i 45 -a 0 -x {0.0 3.0 11 ------- null}
h -t 1.033 -s 0 -d 2 -p cbr -e 50 -c 0 -i 45 -a 0 -x {0.0 3.0 -1 ------- null}
r -t 1.03326666666666 -s 1 -d 2 -p cbr -e 50 -c 0 -i 42 -a 0 -x {1.0 3.0 31 ------- null}
+ -t 1.03326666666666 -s 2 -d 3 -p cbr -e 50 -c 0 -i 42 -a 0 -x {1.0 3.0 31 ------- null}