+ 1 0 2 cbr 50 ------- 0 0.0 3.0 0 0
- 1 0 2 cbr 50 ------- 0 0.0 3.0 0 0
+ 1 1 2 cbr 50 ------- 0 1.0 3.0 0 1
- 1 1 2 cbr 50 ------- 0 1.0 3.0 0 1
+ 1.001 1 2 cbr 50 ------- 0 1.0 3.0 1 2
- 1.001 1 2 cbr 50 ------- 0 1.0 3.0 1 2
r 1.001633 0 2 cbr 50 ------- 0 0.0 3.0 0 0
+ 1.001633 2 3 cbr 50 ------- 0 0.0 3.0 0 0
- 1.001633 2 3 cbr 50 ------- 0 0.0 3.0 0 0
+ 1.002 1 2 cbr 50 ------- 0 1.0 3.0 2 3
- 1.002 1 2 cbr 50 ------- 0 1.0 3.0 2 3
r 1.002267 1 2 cbr 50 ------- 0 1.0 3.0 0 1
+ 1.002267 2 3 cbr 50 ------- 0 1.0 3.0 0 1
- 1.002267 2 3 cbr 50 ------- 0 1.0 3.0 0 1
+ 1.003 1 2 cbr 50 ------- 0 1.0 3.0 3 4
- 1.003 1 2 cbr 50 ------- 0 1.0 3.0 3 4
+ 1.003 0 2 cbr 50 ------- 0 0.0 3.0 1 5
- 1.003 0 2 cbr 50 ------- 0 0.0 3.0 1 5
r 1.003267 1 2 cbr 50 ------- 0 1.0 3.0 1 2
+ 1.003267 2 3 cbr 50 ------- 0 1.0 3.0 1 2
- 1.003267 2 3 cbr 50 ------- 0 1.0 3.0 1 2
r 1.003833 2 3 cbr 50 ------- 0 0.0 3.0 0 0
+ 1.004 1 2 cbr 50 ------- 0 1.0 3.0 4 6
- 1.004 1 2 cbr 50 ------- 0 1.0 3.0 4 6
r 1.004267 1 2 cbr 50 ------- 0 1.0 3.0 2 3
+ 1.004267 2 3 cbr 50 ------- 0 1.0 3.0 2 3
- 1.004267 2 3 cbr 50 ------- 0 1.0 3.0 2 3
r 1.004467 2 3 cbr 50 ------- 0 1.0 3.0 0 1
r 1.004633 0 2 cbr 50 ------- 0 0.0 3.0 1 5
+ 1.004633 2 3 cbr 50 ------- 0 0.0 3.0 1 5
- 1.004633 2 3 cbr 50 ------- 0 0.0 3.0 1 5
+ 1.005 1 2 cbr 50 ------- 0 1.0 3.0 5 7
- 1.005 1 2 cbr 50 ------- 0 1.0 3.0 5 7
r 1.005267 1 2 cbr 50 ------- 0 1.0 3.0 3 4
+ 1.005267 2 3 cbr 50 ------- 0 1.0 3.0 3 4
- 1.005267 2 3 cbr 50 ------- 0 1.0 3.0 3 4
r 1.005467 2 3 cbr 50 ------- 0 1.0 3.0 1 2
+ 1.006 1 2 cbr 50 ------- 0 1.0 3.0 6 8
- 1.006 1 2 cbr 50 ------- 0 1.0 3.0 6 8
+ 1.006 0 2 cbr 50 ------- 0 0.0 3.0 2 9
- 1.006 0 2 cbr 50 ------- 0 0.0 3.0 2 9
r 1.006267 1 2 cbr 50 ------- 0 1.0 3.0 4 6
+ 1.006267 2 3 cbr 50 ------- 0 1.0 3.0 4 6
- 1.006267 2 3 cbr 50 ------- 0 1.0 3.0 4 6
r 1.006467 2 3 cbr 50 ------- 0 1.0 3.0 2 3
r 1.006833 2 3 cbr 50 ------- 0 0.0 3.0 1 5
+ 1.007 1 2 cbr 50 ------- 0 1.0 3.0 7 10
- 1.007 1 2 cbr 50 ------- 0 1.0 3.0 7 10
r 1.007267 1 2 cbr 50 ------- 0 1.0 3.0 5 7
+ 1.007267 2 3 cbr 50 ------- 0 1.0 3.0 5 7
- 1.007267 2 3 cbr 50 ------- 0 1.0 3.0 5 7
r 1.007467 2 3 cbr 50 ------- 0 1.0 3.0 3 4
r 1.007633 0 2 cbr 50 ------- 0 0.0 3.0 2 9
+ 1.007633 2 3 cbr 50 ------- 0 0.0 3.0 2 9
- 1.007633 2 3 cbr 50 ------- 0 0.0 3.0 2 9
+ 1.008 1 2 cbr 50 ------- 0 1.0 3.0 8 11
- 1.008 1 2 cbr 50 ------- 0 1.0 3.0 8 11
r 1.008267 1 2 cbr 50 ------- 0 1.0 3.0 6 8
+ 1.008267 2 3 cbr 50 ------- 0 1.0 3.0 6 8
- 1.008267 2 3 cbr 50 ------- 0 1.0 3.0 6 8
r 1.008467 2 3 cbr 50 ------- 0 1.0 3.0 4 6
+ 1.009 1 2 cbr 50 ------- 0 1.0 3.0 9 12
- 1.009 1 2 cbr 50 ------- 0 1.0 3.0 9 12
+ 1.009 0 2 cbr 50 ------- 0 0.0 3.0 3 13
- 1.009 0 2 cbr 50 ------- 0 0.0 3.0 3 13
r 1.009267 1 2 cbr 50 ------- 0 1.0 3.0 7 10
+ 1.009267 2 3 cbr 50 ------- 0 1.0 3.0 7 10
- 1.009267 2 3 cbr 50 ------- 0 1.0 3.0 7 10
r 1.009467 2 3 cbr 50 ------- 0 1.0 3.0 5 7
r 1.009833 2 3 cbr 50 ------- 0 0.0 3.0 2 9
+ 1.01 1 2 cbr 50 ------- 0 1.0 3.0 10 14
- 1.01 1 2 cbr 50 ------- 0 1.0 3.0 10 14
r 1.010267 1 2 cbr 50 ------- 0 1.0 3.0 8 11
+ 1.010267 2 3 cbr 50 ------- 0 1.0 3.0 8 11
- 1.010267 2 3 cbr 50 ------- 0 1.0 3.0 8 11
r 1.010467 2 3 cbr 50 ------- 0 1.0 3.0 6 8
r 1.010633 0 2 cbr 50 ------- 0 0.0 3.0 3 13
+ 1.010633 2 3 cbr 50 ------- 0 0.0 3.0 3 13
- 1.010633 2 3 cbr 50 ------- 0 0.0 3.0 3 13
+ 1.011 1 2 cbr 50 ------- 0 1.0 3.0 11 15
- 1.011 1 2 cbr 50 ------- 0 1.0 3.0 11 15
r 1.011267 1 2 cbr 50 ------- 0 1.0 3.0 9 12
+ 1.011267 2 3 cbr 50 ------- 0 1.0 3.0 9 12
- 1.011267 2 3 cbr 50 ------- 0 1.0 3.0 9 12
r 1.011467 2 3 cbr 50 ------- 0 1.0 3.0 7 10
+ 1.012 1 2 cbr 50 ------- 0 1.0 3.0 12 16
- 1.012 1 2 cbr 50 ------- 0 1.0 3.0 12 16
+ 1.012 0 2 cbr 50 ------- 0 0.0 3.0 4 17
- 1.012 0 2 cbr 50 ------- 0 0.0 3.0 4 17
r 1.012267 1 2 cbr 50 ------- 0 1.0 3.0 10 14
+ 1.012267 2 3 cbr 50 ------- 0 1.0 3.0 10 14
- 1.012267 2 3 cbr 50 ------- 0 1.0 3.0 10 14
r 1.012467 2 3 cbr 50 ------- 0 1.0 3.0 8 11
r 1.012833 2 3 cbr 50 ------- 0 0.0 3.0 3 13
+ 1.013 1 2 cbr 50 ------- 0 1.0 3.0 13 18
- 1.013 1 2 cbr 50 ------- 0 1.0 3.0 13 18
r 1.013267 1 2 cbr 50 ------- 0 1.0 3.0 11 15
+ 1.013267 2 3 cbr 50 ------- 0 1.0 3.0 11 15
- 1.013267 2 3 cbr 50 ------- 0 1.0 3.0 11 15
r 1.013467 2 3 cbr 50 ------- 0 1.0 3.0 9 12
r 1.013633 0 2 cbr 50 ------- 0 0.0 3.0 4 17
+ 1.013633 2 3 cbr 50 ------- 0 0.0 3.0 4 17
- 1.013633 2 3 cbr 50 ------- 0 0.0 3.0 4 17
+ 1.014 1 2 cbr 50 ------- 0 1.0 3.0 14 19
- 1.014 1 2 cbr 50 ------- 0 1.0 3.0 14 19
r 1.014267 1 2 cbr 50 ------- 0 1.0 3.0 12 16
+ 1.014267 2 3 cbr 50 ------- 0 1.0 3.0 12 16
- 1.014267 2 3 cbr 50 ------- 0 1.0 3.0 12 16
r 1.014467 2 3 cbr 50 ------- 0 1.0 3.0 10 14
+ 1.015 1 2 cbr 50 ------- 0 1.0 3.0 15 20
- 1.015 1 2 cbr 50 ------- 0 1.0 3.0 15 20
+ 1.015 0 2 cbr 50 ------- 0 0.0 3.0 5 21
- 1.015 0 2 cbr 50 ------- 0 0.0 3.0 5 21
r 1.015267 1 2 cbr 50 ------- 0 1.0 3.0 13 18
+ 1.015267 2 3 cbr 50 ------- 0 1.0 3.0 13 18
- 1.015267 2 3 cbr 50 ------- 0 1.0 3.0 13 18
r 1.015467 2 3 cbr 50 ------- 0 1.0 3.0 11 15
r 1.015833 2 3 cbr 50 ------- 0 0.0 3.0 4 17
+ 1.016 1 2 cbr 50 ------- 0 1.0 3.0 16 22
- 1.016 1 2 cbr 50 ------- 0 1.0 3.0 16 22
r 1.016267 1 2 cbr 50 ------- 0 1.0 3.0 14 19
+ 1.016267 2 3 cbr 50 ------- 0 1.0 3.0 14 19
- 1.016267 2 3 cbr 50 ------- 0 1.0 3.0 14 19
r 1.016467 2 3 cbr 50 ------- 0 1.0 3.0 12 16
r 1.016633 0 2 cbr 50 ------- 0 0.0 3.0 5 21
+ 1.016633 2 3 cbr 50 ------- 0 0.0 3.0 5 21
- 1.016633 2 3 cbr 50 ------- 0 0.0 3.0 5 21
+ 1.017 1 2 cbr 50 ------- 0 1.0 3.0 17 23
- 1.017 1 2 cbr 50 ------- 0 1.0 3.0 17 23
r 1.017267 1 2 cbr 50 ------- 0 1.0 3.0 15 20
+ 1.017267 2 3 cbr 50 ------- 0 1.0 3.0 15 20
- 1.017267 2 3 cbr 50 ------- 0 1.0 3.0 15 20
r 1.017467 2 3 cbr 50 ------- 0 1.0 3.0 13 18
+ 1.018 1 2 cbr 50 ------- 0 1.0 3.0 18 24
- 1.018 1 2 cbr 50 ------- 0 1.0 3.0 18 24
+ 1.018 0 2 cbr 50 ------- 0 0.0 3.0 6 25
- 1.018 0 2 cbr 50 ------- 0 0.0 3.0 6 25
r 1.018267 1 2 cbr 50 ------- 0 1.0 3.0 16 22
+ 1.018267 2 3 cbr 50 ------- 0 1.0 3.0 16 22
- 1.018267 2 3 cbr 50 ------- 0 1.0 3.0 16 22
r 1.018467 2 3 cbr 50 ------- 0 1.0 3.0 14 19
r 1.018833 2 3 cbr 50 ------- 0 0.0 3.0 5 21
+ 1.019 1 2 cbr 50 ------- 0 1.0 3.0 19 26
- 1.019 1 2 cbr 50 ------- 0 1.0 3.0 19 26
r 1.019267 1 2 cbr 50 ------- 0 1.0 3.0 17 23
+ 1.019267 2 3 cbr 50 ------- 0 1.0 3.0 17 23
- 1.019267 2 3 cbr 50 ------- 0 1.0 3.0 17 23
r 1.019467 2 3 cbr 50 ------- 0 1.0 3.0 15 20
r 1.019633 0 2 cbr 50 ------- 0 0.0 3.0 6 25
+ 1.019633 2 3 cbr 50 ------- 0 0.0 3.0 6 25
- 1.019633 2 3 cbr 50 ------- 0 0.0 3.0 6 25
+ 1.02 1 2 cbr 50 ------- 0 1.0 3.0 20 27
- 1.02 1 2 cbr 50 ------- 0 1.0 3.0 20 27
r 1.020267 1 2 cbr 50 ------- 0 1.0 3.0 18 24
+ 1.020267 2 3 cbr 50 ------- 0 1.0 3.0 18 24
- 1.020267 2 3 cbr 50 ------- 0 1.0 3.0 18 24
r 1.020467 2 3 cbr 50 ------- 0 1.0 3.0 16 22
+ 1.021 1 2 cbr 50 ------- 0 1.0 3.0 21 28
- 1.021 1 2 cbr 50 ------- 0 1.0 3.0 21 28
+ 1.021 0 2 cbr 50 ------- 0 0.0 3.0 7 29
- 1.021 0 2 cbr 50 ------- 0 0.0 3.0 7 29
r 1.021267 1 2 cbr 50 ------- 0 1.0 3.0 19 26
+ 1.021267 2 3 cbr 50 ------- 0 1.0 3.0 19 26
- 1.021267 2 3 cbr 50 ------- 0 1.0 3.0 19 26
r 1.021467 2 3 cbr 50 ------- 0 1.0 3.0 17 23
r 1.021833 2 3 cbr 50 ------- 0 0.0 3.0 6 25
+ 1.022 1 2 cbr 50 ------- 0 1.0 3.0 22 30
- 1.022 1 2 cbr 50 ------- 0 1.0 3.0 22 30
r 1.022267 1 2 cbr 50 ------- 0 1.0 3.0 20 27
+ 1.022267 2 3 cbr 50 ------- 0 1.0 3.0 20 27
- 1.022267 2 3 cbr 50 ------- 0 1.0 3.0 20 27
r 1.022467 2 3 cbr 50 ------- 0 1.0 3.0 18 24
r 1.022633 0 2 cbr 50 ------- 0 0.0 3.0 7 29
+ 1.022633 2 3 cbr 50 ------- 0 0.0 3.0 7 29
- 1.022633 2 3 cbr 50 ------- 0 0.0 3.0 7 29
+ 1.023 1 2 cbr 50 ------- 0 1.0 3.0 23 31
- 1.023 1 2 cbr 50 ------- 0 1.0 3.0 23 31
r 1.023267 1 2 cbr 50 ------- 0 1.0 3.0 21 28
+ 1.023267 2 3 cbr 50 ------- 0 1.0 3.0 21 28
- 1.023267 2 3 cbr 50 ------- 0 1.0 3.0 21 28
r 1.023467 2 3 cbr 50 ------- 0 1.0 3.0 19 26
+ 1.024 1 2 cbr 50 ------- 0 1.0 3.0 24 32
- 1.024 1 2 cbr 50 ------- 0 1.0 3.0 24 32
+ 1.024 0 2 cbr 50 ------- 0 0.0 3.0 8 33
- 1.024 0 2 cbr 50 ------- 0 0.0 3.0 8 33
r 1.024267 1 2 cbr 50 ------- 0 1.0 3.0 22 30
+ 1.024267 2 3 cbr 50 ------- 0 1.0 3.0 22 30
- 1.024267 2 3 cbr 50 ------- 0 1.0 3.0 22 30
r 1.024467 2 3 cbr 50 ------- 0 1.0 3.0 20 27
r 1.024833 2 3 cbr 50 ------- 0 0.0 3.0 7 29
+ 1.025 1 2 cbr 50 ------- 0 1.0 3.0 25 34
- 1.025 1 2 cbr 50 ------- 0 1.0 3.0 25 34
r 1.025267 1 2 cbr 50 ------- 0 1.0 3.0 23 31
+ 1.025267 2 3 cbr 50 ------- 0 1.0 3.0 23 31
- 1.025267 2 3 cbr 50 ------- 0 1.0 3.0 23 31
r 1.025467 2 3 cbr 50 ------- 0 1.0 3.0 21 28
r 1.025633 0 2 cbr 50 ------- 0 0.0 3.0 8 33
+ 1.025633 2 3 cbr 50 ------- 0 0.0 3.0 8 33
- 1.025633 2 3 cbr 50 ------- 0 0.0 3.0 8 33
+ 1.026 1 2 cbr 50 ------- 0 1.0 3.0 26 35
- 1.026 1 2 cbr 50 ------- 0 1.0 3.0 26 35
r 1.026267 1 2 cbr 50 ------- 0 1.0 3.0 24 32
+ 1.026267 2 3 cbr 50 ------- 0 1.0 3.0 24 32
- 1.026267 2 3 cbr 50 ------- 0 1.0 3.0 24 32
r 1.026467 2 3 cbr 50 ------- 0 1.0 3.0 22 30
+ 1.027 1 2 cbr 50 ------- 0 1.0 3.0 27 36
- 1.027 1 2 cbr 50 ------- 0 1.0 3.0 27 36
+ 1.027 0 2 cbr 50 ------- 0 0.0 3.0 9 37
- 1.027 0 2 cbr 50 ------- 0 0.0 3.0 9 37
r 1.027267 1 2 cbr 50 ------- 0 1.0 3.0 25 34
+ 1.027267 2 3 cbr 50 ------- 0 1.0 3.0 25 34
- 1.027267 2 3 cbr 50 ------- 0 1.0 3.0 25 34
r 1.027467 2 3 cbr 50 ------- 0 1.0 3.0 23 31
r 1.027833 2 3 cbr 50 ------- 0 0.0 3.0 8 33
+ 1.028 1 2 cbr 50 ------- 0 1.0 3.0 28 38
- 1.028 1 2 cbr 50 ------- 0 1.0 3.0 28 38
r 1.028267 1 2 cbr 50 ------- 0 1.0 3.0 26 35
+ 1.028267 2 3 cbr 50 ------- 0 1.0 3.0 26 35
- 1.028267 2 3 cbr 50 ------- 0 1.0 3.0 26 35
r 1.028467 2 3 cbr 50 ------- 0 1.0 3.0 24 32
r 1.028633 0 2 cbr 50 ------- 0 0.0 3.0 9 37
+ 1.028633 2 3 cbr 50 ------- 0 0.0 3.0 9 37
- 1.028633 2 3 cbr 50 ------- 0 0.0 3.0 9 37
+ 1.029 1 2 cbr 50 ------- 0 1.0 3.0 29 39
- 1.029 1 2 cbr 50 ------- 0 1.0 3.0 29 39
r 1.029267 1 2 cbr 50 ------- 0 1.0 3.0 27 36
+ 1.029267 2 3 cbr 50 ------- 0 1.0 3.0 27 36
- 1.029267 2 3 cbr 50 ------- 0 1.0 3.0 27 36
r 1.029467 2 3 cbr 50 ------- 0 1.0 3.0 25 34
+ 1.03 1 2 cbr 50 ------- 0 1.0 3.0 30 40
- 1.03 1 2 cbr 50 ------- 0 1.0 3.0 30 40
+ 1.03 0 2 cbr 50 ------- 0 0.0 3.0 10 41
- 1.03 0 2 cbr 50 ------- 0 0.0 3.0 10 41
r 1.030267 1 2 cbr 50 ------- 0 1.0 3.0 28 38
+ 1.030267 2 3 cbr 50 ------- 0 1.0 3.0 28 38
- 1.030267 2 3 cbr 50 ------- 0 1.0 3.0 28 38
r 1.030467 2 3 cbr 50 ------- 0 1.0 3.0 26 35
r 1.030833 2 3 cbr 50 ------- 0 0.0 3.0 9 37
+ 1.031 1 2 cbr 50 ------- 0 1.0 3.0 31 42
- 1.031 1 2 cbr 50 ------- 0 1.0 3.0 31 42
r 1.031267 1 2 cbr 50 ------- 0 1.0 3.0 29 39
+ 1.031267 2 3 cbr 50 ------- 0 1.0 3.0 29 39
- 1.031267 2 3 cbr 50 ------- 0 1.0 3.0 29 39
r 1.031467 2 3 cbr 50 ------- 0 1.0 3.0 27 36
r 1.031633 0 2 cbr 50 ------- 0 0.0 3.0 10 41
+ 1.031633 2 3 cbr 50 ------- 0 0.0 3.0 10 41
- 1.031633 2 3 cbr 50 ------- 0 0.0 3.0 10 41
+ 1.032 1 2 cbr 50 ------- 0 1.0 3.0 32 43
- 1.032 1 2 cbr 50 ------- 0 1.0 3.0 32 43
r 1.032267 1 2 cbr 50 ------- 0 1.0 3.0 30 40
+ 1.032267 2 3 cbr 50 ------- 0 1.0 3.0 30 40
- 1.032267 2 3 cbr 50 ------- 0 1.0 3.0 30 40
r 1.032467 2 3 cbr 50 ------- 0 1.0 3.0 28 38
+ 1.033 1 2 cbr 50 ------- 0 1.0 3.0 33 44
- 1.033 1 2 cbr 50 ------- 0 1.0 3.0 33 44
+ 1.033 0 2 cbr 50 ------- 0 0.0 3.0 11 45
- 1.033 0 2 cbr 50 ------- 0 0.0 3.0 11 45
r 1.033267 1 2 cbr 50 ------- 0 1.0 3.0 31 42
+ 1.033267 2 3 cbr 50 ------- 0 1.0 3.0 31 42
- 1.033267 2 3 cbr 50 ------- 0 1.0 3.0 31 42
r 1.033467 2 3 cbr 50 ------- 0 1.0 3.0 29 39
r 1.033833 2 3 cbr 50 ------- 0 0.0 3.0 10 41
+ 1.034 1 2 cbr 50 ------- 0 1.0 3.0 34 46
- 1.034 1 2 cbr 50 ------- 0 1.0 3.0 34 46
r 1.034267 1 2 cbr 50 ------- 0 1.0 3.0 32 43
+ 1.034267 2 3 cbr 50 ------- 0 1.0 3.0 32 43
- 1.034267 2 3 cbr 50 ------- 0 1.0 3.0 32 43
r 1.034467 2 3 cbr 50 ------- 0 1.0 3.0 30 40
r 1.034633 0 2 cbr 50 ------- 0 0.0 3.0 11 45
+ 1.034633 2 3 cbr 50 ------- 0 0.0 3.0 11 45
- 1.034633 2 3 cbr 50 ------- 0 0.0 3.0 11 45
+ 1.035 1 2 cbr 50 ------- 0 1.0 3.0 35 47
- 1.035 1 2 cbr 50 ------- 0 1.0 3.0 35 47
r 1.035267 1 2 cbr 50 ------- 0 1.0 3.0 33 44
+ 1.035267 2 3 cbr 50 ------- 0 1.0 3.0 33 44
- 1.035267 2 3 cbr 50 ------- 0 1.0 3.0 33 44
r 1.035467 2 3 cbr 50 ------- 0 1.0 3.0 31 42
+ 1.036 1 2 cbr 50 ------- 0 1.0 3.0 36 48
- 1.036 1 2 cbr 50 ------- 0 1.0 3.0 36 48
+ 1.036 0 2 cbr 50 ------- 0 0.0 3.0 12 49
- 1.036 0 2 cbr 50 ------- 0 0.0 3.0 12 49
r 1.036267 1 2 cbr 50 ------- 0 1.0 3.0 34 46
+ 1.036267 2 3 cbr 50 ------- 0 1.0 3.0 34 46
- 1.036267 2 3 cbr 50 ------- 0 1.0 3.0 34 46
r 1.036467 2 3 cbr 50 ------- 0 1.0 3.0 32 43
r 1.036833 2 3 cbr 50 ------- 0 0.0 3.0 11 45
+ 1.037 1 2 cbr 50 ------- 0 1.0 3.0 37 50
- 1.037 1 2 cbr 50 ------- 0 1.0 3.0 37 50
r 1.037267 1 2 cbr 50 ------- 0 1.0 3.0 35 47
+ 1.037267 2 3 cbr 50 ------- 0 1.0 3.0 35 47
- 1.037267 2 3 cbr 50 ------- 0 1.0 3.0 35 47
r 1.037467 2 3 cbr 50 ------- 0 1.0 3.0 33 44
r 1.037633 0 2 cbr 50 ------- 0 0.0 3.0 12 49
+ 1.037633 2 3 cbr 50 ------- 0 0.0 3.0 12 49
- 1.037633 2 3 cbr 50 ------- 0 0.0 3.0 12 49
+ 1.038 1 2 cbr 50 ------- 0 1.0 3.0 38 51
- 1.038 1 2 cbr 50 ------- 0 1.0 3.0 38 51
r 1.038267 1 2 cbr 50 ------- 0 1.0 3.0 36 48
+ 1.038267 2 3 cbr 50 ------- 0 1.0 3.0 36 48
- 1.038267 2 3 cbr 50 ------- 0 1.0 3.0 36 48
r 1.038467 2 3 cbr 50 ------- 0 1.0 3.0 34 46
+ 1.039 1 2 cbr 50 ------- 0 1.0 3.0 39 52
- 1.039 1 2 cbr 50 ------- 0 1.0 3.0 39 52
+ 1.039 0 2 cbr 50 ------- 0 0.0 3.0 13 53
- 1.039 0 2 cbr 50 ------- 0 0.0 3.0 13 53
r 1.039267 1 2 cbr 50 ------- 0 1.0 3.0 37 50
+ 1.039267 2 3 cbr 50 ------- 0 1.0 3.0 37 50
- 1.039267 2 3 cbr 50 ------- 0 1.0 3.0 37 50
r 1.039467 2 3 cbr 50 ------- 0 1.0 3.0 35 47
r 1.039833 2 3 cbr 50 ------- 0 0.0 3.0 12 49
+ 1.04 1 2 cbr 50 ------- 0 1.0 3.0 40 54
- 1.04 1 2 cbr 50 ------- 0 1.0 3.0 40 54
r 1.040267 1 2 cbr 50 ------- 0 1.0 3.0 38 51
+ 1.040267 2 3 cbr 50 ------- 0 1.0 3.0 38 51
- 1.040267 2 3 cbr 50 ------- 0 1.0 3.0 38 51
r 1.040467 2 3 cbr 50 ------- 0 1.0 3.0 36 48
r 1.040633 0 2 cbr 50 ------- 0 0.0 3.0 13 53
+ 1.040633 2 3 cbr 50 ------- 0 0.0 3.0 13 53
- 1.040633 2 3 cbr 50 ------- 0 0.0 3.0 13 53
+ 1.041 1 2 cbr 50 ------- 0 1.0 3.0 41 55
- 1.041 1 2 cbr 50 ------- 0 1.0 3.0 41 55
r 1.041267 1 2 cbr 50 ------- 0 1.0 3.0 39 52
+ 1.041267 2 3 cbr 50 ------- 0 1.0 3.0 39 52
- 1.041267 2 3 cbr 50 ------- 0 1.0 3.0 39 52
r 1.041467 2 3 cbr 50 ------- 0 1.0 3.0 37 50
+ 1.042 1 2 cbr 50 ------- 0 1.0 3.0 42 56
- 1.042 1 2 cbr 50 ------- 0 1.0 3.0 42 56
+ 1.042 0 2 cbr 50 ------- 0 0.0 3.0 14 57
- 1.042 0 2 cbr 50 ------- 0 0.0 3.0 14 57
r 1.042267 1 2 cbr 50 ------- 0 1.0 3.0 40 54
+ 1.042267 2 3 cbr 50 ------- 0 1.0 3.0 40 54
- 1.042267 2 3 cbr 50 ------- 0 1.0 3.0 40 54
r 1.042467 2 3 cbr 50 ------- 0 1.0 3.0 38 51
r 1.042833 2 3 cbr 50 ------- 0 0.0 3.0 13 53
+ 1.043 1 2 cbr 50 ------- 0 1.0 3.0 43 58
- 1.043 1 2 cbr 50 ------- 0 1.0 3.0 43 58
r 1.043267 1 2 cbr 50 ------- 0 1.0 3.0 41 55
+ 1.043267 2 3 cbr 50 ------- 0 1.0 3.0 41 55
- 1.043267 2 3 cbr 50 ------- 0 1.0 3.0 41 55
r 1.043467 2 3 cbr 50 ------- 0 1.0 3.0 39 52
r 1.043633 0 2 cbr 50 ------- 0 0.0 3.0 14 57
+ 1.043633 2 3 cbr 50 ------- 0 0.0 3.0 14 57
- 1.043633 2 3 cbr 50 ------- 0 0.0 3.0 14 57
+ 1.044 1 2 cbr 50 ------- 0 1.0 3.0 44 59
- 1.044 1 2 cbr 50 ------- 0 1.0 3.0 44 59
r 1.044267 1 2 cbr 50 ------- 0 1.0 3.0 42 56
+ 1.044267 2 3 cbr 50 ------- 0 1.0 3.0 42 56
- 1.044267 2 3 cbr 50 ------- 0 1.0 3.0 42 56
r 1.044467 2 3 cbr 50 ------- 0 1.0 3.0 40 54
+ 1.045 1 2 cbr 50 ------- 0 1.0 3.0 45 60
- 1.045 1 2 cbr 50 ------- 0 1.0 3.0 45 60
+ 1.045 0 2 cbr 50 ------- 0 0.0 3.0 15 61
- 1.045 0 2 cbr 50 ------- 0 0.0 3.0 15 61
r 1.045267 1 2 cbr 50 ------- 0 1.0 3.0 43 58
+ 1.045267 2 3 cbr 50 ------- 0 1.0 3.0 43 58
- 1.045267 2 3 cbr 50 ------- 0 1.0 3.0 43 58
r 1.045467 2 3 cbr 50 ------- 0 1.0 3.0 41 55
r 1.045833 2 3 cbr 50 ------- 0 0.0 3.0 14 57
+ 1.046 1 2 cbr 50 ------- 0 1.0 3.0 46 62
- 1.046 1 2 cbr 50 ------- 0 1.0 3.0 46 62
r 1.046267 1 2 cbr 50 ------- 0 1.0 3.0 44 59
+ 1.046267 2 3 cbr 50 ------- 0 1.0 3.0 44 59
- 1.046267 2 3 cbr 50 ------- 0 1.0 3.0 44 59
r 1.046467 2 3 cbr 50 ------- 0 1.0 3.0 42 56
r 1.046633 0 2 cbr 50 ------- 0 0.0 3.0 15 61
+ 1.046633 2 3 cbr 50 ------- 0 0.0 3.0 15 61
- 1.046633 2 3 cbr 50 ------- 0 0.0 3.0 15 61
+ 1.047 1 2 cbr 50 ------- 0 1.0 3.0 47 63
- 1.047 1 2 cbr 50 ------- 0 1.0 3.0 47 63
r 1.047267 1 2 cbr 50 ------- 0 1.0 3.0 45 60
+ 1.047267 2 3 cbr 50 ------- 0 1.0 3.0 45 60
- 1.047267 2 3 cbr 50 ------- 0 1.0 3.0 45 60
r 1.047467 2 3 cbr 50 ------- 0 1.0 3.0 43 58
+ 1.048 1 2 cbr 50 ------- 0 1.0 3.0 48 64
- 1.048 1 2 cbr 50 ------- 0 1.0 3.0 48 64
+ 1.048 0 2 cbr 50 ------- 0 0.0 3.0 16 65
- 1.048 0 2 cbr 50 ------- 0 0.0 3.0 16 65
r 1.048267 1 2 cbr 50 ------- 0 1.0 3.0 46 62
+ 1.048267 2 3 cbr 50 ------- 0 1.0 3.0 46 62
- 1.048267 2 3 cbr 50 ------- 0 1.0 3.0 46 62
r 1.048467 2 3 cbr 50 ------- 0 1.0 3.0 44 59
r 1.048833 2 3 cbr 50 ------- 0 0.0 3.0 15 61
+ 1.049 1 2 cbr 50 ------- 0 1.0 3.0 49 66
- 1.049 1 2 cbr 50 ------- 0 1.0 3.0 49 66
r 1.049267 1 2 cbr 50 ------- 0 1.0 3.0 47 63
+ 1.049267 2 3 cbr 50 ------- 0 1.0 3.0 47 63
- 1.049267 2 3 cbr 50 ------- 0 1.0 3.0 47 63
r 1.049467 2 3 cbr 50 ------- 0 1.0 3.0 45 60
r 1.049633 0 2 cbr 50 ------- 0 0.0 3.0 16 65
+ 1.049633 2 3 cbr 50 ------- 0 0.0 3.0 16 65
- 1.049633 2 3 cbr 50 ------- 0 0.0 3.0 16 65
+ 1.05 1 2 cbr 50 ------- 0 1.0 3.0 50 67
- 1.05 1 2 cbr 50 ------- 0 1.0 3.0 50 67
r 1.050267 1 2 cbr 50 ------- 0 1.0 3.0 48 64
+ 1.050267 2 3 cbr 50 ------- 0 1.0 3.0 48 64
- 1.050267 2 3 cbr 50 ------- 0 1.0 3.0 48 64
r 1.050467 2 3 cbr 50 ------- 0 1.0 3.0 46 62
+ 1.051 1 2 cbr 50 ------- 0 1.0 3.0 51 68
- 1.051 1 2 cbr 50 ------- 0 1.0 3.0 51 68
+ 1.051 0 2 cbr 50 ------- 0 0.0 3.0 17 69
- 1.051 0 2 cbr 50 ------- 0 0.0 3.0 17 69
r 1.051267 1 2 cbr 50 ------- 0 1.0 3.0 49 66
+ 1.051267 2 3 cbr 50 ------- 0 1.0 3.0 49 66
- 1.051267 2 3 cbr 50 ------- 0 1.0 3.0 49 66
r 1.051467 2 3 cbr 50 ------- 0 1.0 3.0 47 63
r 1.051833 2 3 cbr 50 ------- 0 0.0 3.0 16 65
+ 1.052 1 2 cbr 50 ------- 0 1.0 3.0 52 70
- 1.052 1 2 cbr 50 ------- 0 1.0 3.0 52 70
r 1.052267 1 2 cbr 50 ------- 0 1.0 3.0 50 67
+ 1.052267 2 3 cbr 50 ------- 0 1.0 3.0 50 67
- 1.052267 2 3 cbr 50 ------- 0 1.0 3.0 50 67
r 1.052467 2 3 cbr 50 ------- 0 1.0 3.0 48 64
r 1.052633 0 2 cbr 50 ------- 0 0.0 3.0 17 69
+ 1.052633 2 3 cbr 50 ------- 0 0.0 3.0 17 69
- 1.052633 2 3 cbr 50 ------- 0 0.0 3.0 17 69
+ 1.053 1 2 cbr 50 ------- 0 1.0 3.0 53 71
- 1.053 1 2 cbr 50 ------- 0 1.0 3.0 53 71
r 1.053267 1 2 cbr 50 ------- 0 1.0 3.0 51 68
+ 1.053267 2 3 cbr 50 ------- 0 1.0 3.0 51 68
- 1.053267 2 3 cbr 50 ------- 0 1.0 3.0 51 68
r 1.053467 2 3 cbr 50 ------- 0 1.0 3.0 49 66
+ 1.054 1 2 cbr 50 ------- 0 1.0 3.0 54 72
- 1.054 1 2 cbr 50 ------- 0 1.0 3.0 54 72
+ 1.054 0 2 cbr 50 ------- 0 0.0 3.0 18 73
- 1.054 0 2 cbr 50 ------- 0 0.0 3.0 18 73
r 1.054267 1 2 cbr 50 ------- 0 1.0 3.0 52 70
+ 1.054267 2 3 cbr 50 ------- 0 1.0 3.0 52 70
- 1.054267 2 3 cbr 50 ------- 0 1.0 3.0 52 70
r 1.054467 2 3 cbr 50 ------- 0 1.0 3.0 50 67
r 1.054833 2 3 cbr 50 ------- 0 0.0 3.0 17 69
+ 1.055 1 2 cbr 50 ------- 0 1.0 3.0 55 74
- 1.055 1 2 cbr 50 ------- 0 1.0 3.0 55 74
r 1.055267 1 2 cbr 50 ------- 0 1.0 3.0 53 71
+ 1.055267 2 3 cbr 50 ------- 0 1.0 3.0 53 71
- 1.055267 2 3 cbr 50 ------- 0 1.0 3.0 53 71
r 1.055467 2 3 cbr 50 ------- 0 1.0 3.0 51 68
r 1.055633 0 2 cbr 50 ------- 0 0.0 3.0 18 73
+ 1.055633 2 3 cbr 50 ------- 0 0.0 3.0 18 73
- 1.055633 2 3 cbr 50 ------- 0 0.0 3.0 18 73
+ 1.056 1 2 cbr 50 ------- 0 1.0 3.0 56 75
- 1.056 1 2 cbr 50 ------- 0 1.0 3.0 56 75
r 1.056267 1 2 cbr 50 ------- 0 1.0 3.0 54 72
+ 1.056267 2 3 cbr 50 ------- 0 1.0 3.0 54 72
- 1.056267 2 3 cbr 50 ------- 0 1.0 3.0 54 72
r 1.056467 2 3 cbr 50 ------- 0 1.0 3.0 52 70
+ 1.057 1 2 cbr 50 ------- 0 1.0 3.0 57 76
- 1.057 1 2 cbr 50 ------- 0 1.0 3.0 57 76
+ 1.057 0 2 cbr 50 ------- 0 0.0 3.0 19 77
- 1.057 0 2 cbr 50 ------- 0 0.0 3.0 19 77
r 1.057267 1 2 cbr 50 ------- 0 1.0 3.0 55 74
+ 1.057267 2 3 cbr 50 ------- 0 1.0 3.0 55 74
- 1.057267 2 3 cbr 50 ------- 0 1.0 3.0 55 74
r 1.057467 2 3 cbr 50 ------- 0 1.0 3.0 53 71
r 1.057833 2 3 cbr 50 ------- 0 0.0 3.0 18 73
+ 1.058 1 2 cbr 50 ------- 0 1.0 3.0 58 78
- 1.058 1 2 cbr 50 ------- 0 1.0 3.0 58 78
r 1.058267 1 2 cbr 50 ------- 0 1.0 3.0 56 75
+ 1.058267 2 3 cbr 50 ------- 0 1.0 3.0 56 75
- 1.058267 2 3 cbr 50 ------- 0 1.0 3.0 56 75
r 1.058467 2 3 cbr 50 ------- 0 1.0 3.0 54 72
r 1.058633 0 2 cbr 50 ------- 0 0.0 3.0 19 77
+ 1.058633 2 3 cbr 50 ------- 0 0.0 3.0 19 77
- 1.058633 2 3 cbr 50 ------- 0 0.0 3.0 19 77
+ 1.059 1 2 cbr 50 ------- 0 1.0 3.0 59 79
- 1.059 1 2 cbr 50 ------- 0 1.0 3.0 59 79
r 1.059267 1 2 cbr 50 ------- 0 1.0 3.0 57 76
+ 1.059267 2 3 cbr 50 ------- 0 1.0 3.0 57 76
- 1.059267 2 3 cbr 50 ------- 0 1.0 3.0 57 76
r 1.059467 2 3 cbr 50 ------- 0 1.0 3.0 55 74
+ 1.06 1 2 cbr 50 ------- 0 1.0 3.0 60 80
- 1.06 1 2 cbr 50 ------- 0 1.0 3.0 60 80
+ 1.06 0 2 cbr 50 ------- 0 0.0 3.0 20 81
- 1.06 0 2 cbr 50 ------- 0 0.0 3.0 20 81
r 1.060267 1 2 cbr 50 ------- 0 1.0 3.0 58 78
+ 1.060267 2 3 cbr 50 ------- 0 1.0 3.0 58 78
- 1.060267 2 3 cbr 50 ------- 0 1.0 3.0 58 78
r 1.060467 2 3 cbr 50 ------- 0 1.0 3.0 56 75
r 1.060833 2 3 cbr 50 ------- 0 0.0 3.0 19 77
+ 1.061 1 2 cbr 50 ------- 0 1.0 3.0 61 82
- 1.061 1 2 cbr 50 ------- 0 1.0 3.0 61 82
r 1.061267 1 2 cbr 50 ------- 0 1.0 3.0 59 79
+ 1.061267 2 3 cbr 50 ------- 0 1.0 3.0 59 79
- 1.061267 2 3 cbr 50 ------- 0 1.0 3.0 59 79
r 1.061467 2 3 cbr 50 ------- 0 1.0 3.0 57 76
r 1.061633 0 2 cbr 50 ------- 0 0.0 3.0 20 81
+ 1.061633 2 3 cbr 50 ------- 0 0.0 3.0 20 81
- 1.061633 2 3 cbr 50 ------- 0 0.0 3.0 20 81
+ 1.062 1 2 cbr 50 ------- 0 1.0 3.0 62 83
- 1.062 1 2 cbr 50 ------- 0 1.0 3.0 62 83
r 1.062267 1 2 cbr 50 ------- 0 1.0 3.0 60 80
+ 1.062267 2 3 cbr 50 ------- 0 1.0 3.0 60 80
- 1.062267 2 3 cbr 50 ------- 0 1.0 3.0 60 80
r 1.062467 2 3 cbr 50 ------- 0 1.0 3.0 58 78
+ 1.063 1 2 cbr 50 ------- 0 1.0 3.0 63 84
- 1.063 1 2 cbr 50 ------- 0 1.0 3.0 63 84
+ 1.063 0 2 cbr 50 ------- 0 0.0 3.0 21 85
- 1.063 0 2 cbr 50 ------- 0 0.0 3.0 21 85
r 1.063267 1 2 cbr 50 ------- 0 1.0 3.0 61 82
+ 1.063267 2 3 cbr 50 ------- 0 1.0 3.0 61 82
- 1.063267 2 3 cbr 50 ------- 0 1.0 3.0 61 82
r 1.063467 2 3 cbr 50 ------- 0 1.0 3.0 59 79
r 1.063833 2 3 cbr 50 ------- 0 0.0 3.0 20 81
+ 1.064 1 2 cbr 50 ------- 0 1.0 3.0 64 86
- 1.064 1 2 cbr 50 ------- 0 1.0 3.0 64 86
r 1.064267 1 2 cbr 50 ------- 0 1.0 3.0 62 83
+ 1.064267 2 3 cbr 50 ------- 0 1.0 3.0 62 83
- 1.064267 2 3 cbr 50 ------- 0 1.0 3.0 62 83
r 1.064467 2 3 cbr 50 ------- 0 1.0 3.0 60 80
r 1.064633 0 2 cbr 50 ------- 0 0.0 3.0 21 85
+ 1.064633 2 3 cbr 50 ------- 0 0.0 3.0 21 85
- 1.064633 2 3 cbr 50 ------- 0 0.0 3.0 21 85
+ 1.065 1 2 cbr 50 ------- 0 1.0 3.0 65 87
- 1.065 1 2 cbr 50 ------- 0 1.0 3.0 65 87
r 1.065267 1 2 cbr 50 ------- 0 1.0 3.0 63 84
+ 1.065267 2 3 cbr 50 ------- 0 1.0 3.0 63 84
- 1.065267 2 3 cbr 50 ------- 0 1.0 3.0 63 84
r 1.065467 2 3 cbr 50 ------- 0 1.0 3.0 61 82
+ 1.066 1 2 cbr 50 ------- 0 1.0 3.0 66 88
- 1.066 1 2 cbr 50 ------- 0 1.0 3.0 66 88
+ 1.066 0 2 cbr 50 ------- 0 0.0 3.0 22 89
- 1.066 0 2 cbr 50 ------- 0 0.0 3.0 22 89
r 1.066267 1 2 cbr 50 ------- 0 1.0 3.0 64 86
+ 1.066267 2 3 cbr 50 ------- 0 1.0 3.0 64 86
- 1.066267 2 3 cbr 50 ------- 0 1.0 3.0 64 86
r 1.066467 2 3 cbr 50 ------- 0 1.0 3.0 62 83
r 1.066833 2 3 cbr 50 ------- 0 0.0 3.0 21 85
+ 1.067 1 2 cbr 50 ------- 0 1.0 3.0 67 90
- 1.067 1 2 cbr 50 ------- 0 1.0 3.0 67 90
r 1.067267 1 2 cbr 50 ------- 0 1.0 3.0 65 87
+ 1.067267 2 3 cbr 50 ------- 0 1.0 3.0 65 87
- 1.067267 2 3 cbr 50 ------- 0 1.0 3.0 65 87
r 1.067467 2 3 cbr 50 ------- 0 1.0 3.0 63 84
r 1.067633 0 2 cbr 50 ------- 0 0.0 3.0 22 89
+ 1.067633 2 3 cbr 50 ------- 0 0.0 3.0 22 89
- 1.067633 2 3 cbr 50 ------- 0 0.0 3.0 22 89
+ 1.068 1 2 cbr 50 ------- 0 1.0 3.0 68 91
- 1.068 1 2 cbr 50 ------- 0 1.0 3.0 68 91
r 1.068267 1 2 cbr 50 ------- 0 1.0 3.0 66 88
+ 1.068267 2 3 cbr 50 ------- 0 1.0 3.0 66 88
- 1.068267 2 3 cbr 50 ------- 0 1.0 3.0 66 88
r 1.068467 2 3 cbr 50 ------- 0 1.0 3.0 64 86
+ 1.069 1 2 cbr 50 ------- 0 1.0 3.0 69 92
- 1.069 1 2 cbr 50 ------- 0 1.0 3.0 69 92
+ 1.069 0 2 cbr 50 ------- 0 0.0 3.0 23 93
- 1.069 0 2 cbr 50 ------- 0 0.0 3.0 23 93
r 1.069267 1 2 cbr 50 ------- 0 1.0 3.0 67 90
+ 1.069267 2 3 cbr 50 ------- 0 1.0 3.0 67 90
- 1.069267 2 3 cbr 50 ------- 0 1.0 3.0 67 90
r 1.069467 2 3 cbr 50 ------- 0 1.0 3.0 65 87
r 1.069833 2 3 cbr 50 ------- 0 0.0 3.0 22 89
+ 1.07 1 2 cbr 50 ------- 0 1.0 3.0 70 94
- 1.07 1 2 cbr 50 ------- 0 1.0 3.0 70 94
r 1.070267 1 2 cbr 50 ------- 0 1.0 3.0 68 91
+ 1.070267 2 3 cbr 50 ------- 0 1.0 3.0 68 91
- 1.070267 2 3 cbr 50 ------- 0 1.0 3.0 68 91
r 1.070467 2 3 cbr 50 ------- 0 1.0 3.0 66 88
r 1.070633 0 2 cbr 50 ------- 0 0.0 3.0 23 93
+ 1.070633 2 3 cbr 50 ------- 0 0.0 3.0 23 93
- 1.070633 2 3 cbr 50 ------- 0 0.0 3.0 23 93
+ 1.071 1 2 cbr 50 ------- 0 1.0 3.0 71 95
- 1.071 1 2 cbr 50 ------- 0 1.0 3.0 71 95
r 1.071267 1 2 cbr 50 ------- 0 1.0 3.0 69 92
+ 1.071267 2 3 cbr 50 ------- 0 1.0 3.0 69 92
- 1.071267 2 3 cbr 50 ------- 0 1.0 3.0 69 92
r 1.071467 2 3 cbr 50 ------- 0 1.0 3.0 67 90
+ 1.072 1 2 cbr 50 ------- 0 1.0 3.0 72 96
- 1.072 1 2 cbr 50 ------- 0 1.0 3.0 72 96
+ 1.072 0 2 cbr 50 ------- 0 0.0 3.0 24 97
- 1.072 0 2 cbr 50 ------- 0 0.0 3.0 24 97
r 1.072267 1 2 cbr 50 ------- 0 1.0 3.0 70 94
+ 1.072267 2 3 cbr 50 ------- 0 1.0 3.0 70 94
- 1.072267 2 3 cbr 50 ------- 0 1.0 3.0 70 94
r 1.072467 2 3 cbr 50 ------- 0 1.0 3.0 68 91
r 1.072833 2 3 cbr 50 ------- 0 0.0 3.0 23 93
+ 1.073 1 2 cbr 50 ------- 0 1.0 3.0 73 98
- 1.073 1 2 cbr 50 ------- 0 1.0 3.0 73 98
r 1.073267 1 2 cbr 50 ------- 0 1.0 3.0 71 95
+ 1.073267 2 3 cbr 50 ------- 0 1.0 3.0 71 95
- 1.073267 2 3 cbr 50 ------- 0 1.0 3.0 71 95
r 1.073467 2 3 cbr 50 ------- 0 1.0 3.0 69 92
r 1.073633 0 2 cbr 50 ------- 0 0.0 3.0 24 97
+ 1.073633 2 3 cbr 50 ------- 0 0.0 3.0 24 97
- 1.073633 2 3 cbr 50 ------- 0 0.0 3.0 24 97
+ 1.074 1 2 cbr 50 ------- 0 1.0 3.0 74 99
- 1.074 1 2 cbr 50 ------- 0 1.0 3.0 74 99
r 1.074267 1 2 cbr 50 ------- 0 1.0 3.0 72 96
+ 1.074267 2 3 cbr 50 ------- 0 1.0 3.0 72 96
- 1.074267 2 3 cbr 50 ------- 0 1.0 3.0 72 96
r 1.074467 2 3 cbr 50 ------- 0 1.0 3.0 70 94
+ 1.075 1 2 cbr 50 ------- 0 1.0 3.0 75 100
- 1.075 1 2 cbr 50 ------- 0 1.0 3.0 75 100
+ 1.075 0 2 cbr 50 ------- 0 0.0 3.0 25 101
- 1.075 0 2 cbr 50 ------- 0 0.0 3.0 25 101
r 1.075267 1 2 cbr 50 ------- 0 1.0 3.0 73 98
+ 1.075267 2 3 cbr 50 ------- 0 1.0 3.0 73 98
- 1.075267 2 3 cbr 50 ------- 0 1.0 3.0 73 98
r 1.075467 2 3 cbr 50 ------- 0 1.0 3.0 71 95
r 1.075833 2 3 cbr 50 ------- 0 0.0 3.0 24 97
+ 1.076 1 2 cbr 50 ------- 0 1.0 3.0 76 102
- 1.076 1 2 cbr 50 ------- 0 1.0 3.0 76 102
r 1.076267 1 2 cbr 50 ------- 0 1.0 3.0 74 99
+ 1.076267 2 3 cbr 50 ------- 0 1.0 3.0 74 99
- 1.076267 2 3 cbr 50 ------- 0 1.0 3.0 74 99
r 1.076467 2 3 cbr 50 ------- 0 1.0 3.0 72 96
r 1.076633 0 2 cbr 50 ------- 0 0.0 3.0 25 101
+ 1.076633 2 3 cbr 50 ------- 0 0.0 3.0 25 101
- 1.076633 2 3 cbr 50 ------- 0 0.0 3.0 25 101
+ 1.077 1 2 cbr 50 ------- 0 1.0 3.0 77 103
- 1.077 1 2 cbr 50 ------- 0 1.0 3.0 77 103
r 1.077267 1 2 cbr 50 ------- 0 1.0 3.0 75 100
+ 1.077267 2 3 cbr 50 ------- 0 1.0 3.0 75 100
- 1.077267 2 3 cbr 50 ------- 0 1.0 3.0 75 100
r 1.077467 2 3 cbr 50 ------- 0 1.0 3.0 73 98
+ 1.078 1 2 cbr 50 ------- 0 1.0 3.0 78 104
- 1.078 1 2 cbr 50 ------- 0 1.0 3.0 78 104
+ 1.078 0 2 cbr 50 ------- 0 0.0 3.0 26 105
- 1.078 0 2 cbr 50 ------- 0 0.0 3.0 26 105
r 1.078267 1 2 cbr 50 ------- 0 1.0 3.0 76 102
+ 1.078267 2 3 cbr 50 ------- 0 1.0 3.0 76 102
- 1.078267 2 3 cbr 50 ------- 0 1.0 3.0 76 102
r 1.078467 2 3 cbr 50 ------- 0 1.0 3.0 74 99
r 1.078833 2 3 cbr 50 ------- 0 0.0 3.0 25 101
+ 1.079 1 2 cbr 50 ------- 0 1.0 3.0 79 106
- 1.079 1 2 cbr 50 ------- 0 1.0 3.0 79 106
r 1.079267 1 2 cbr 50 ------- 0 1.0 3.0 77 103
+ 1.079267 2 3 cbr 50 ------- 0 1.0 3.0 77 103
- 1.079267 2 3 cbr 50 ------- 0 1.0 3.0 77 103
r 1.079467 2 3 cbr 50 ------- 0 1.0 3.0 75 100
r 1.079633 0 2 cbr 50 ------- 0 0.0 3.0 26 105
+ 1.079633 2 3 cbr 50 ------- 0 0.0 3.0 26 105
- 1.079633 2 3 cbr 50 ------- 0 0.0 3.0 26 105
+ 1.08 1 2 cbr 50 ------- 0 1.0 3.0 80 107
- 1.08 1 2 cbr 50 ------- 0 1.0 3.0 80 107
r 1.080267 1 2 cbr 50 ------- 0 1.0 3.0 78 104
+ 1.080267 2 3 cbr 50 ------- 0 1.0 3.0 78 104
- 1.080267 2 3 cbr 50 ------- 0 1.0 3.0 78 104
r 1.080467 2 3 cbr 50 ------- 0 1.0 3.0 76 102
+ 1.081 1 2 cbr 50 ------- 0 1.0 3.0 81 108
- 1.081 1 2 cbr 50 ------- 0 1.0 3.0 81 108
+ 1.081 0 2 cbr 50 ------- 0 0.0 3.0 27 109
- 1.081 0 2 cbr 50 ------- 0 0.0 3.0 27 109
r 1.081267 1 2 cbr 50 ------- 0 1.0 3.0 79 106
+ 1.081267 2 3 cbr 50 ------- 0 1.0 3.0 79 106
- 1.081267 2 3 cbr 50 ------- 0 1.0 3.0 79 106
r 1.081467 2 3 cbr 50 ------- 0 1.0 3.0 77 103
r 1.081833 2 3 cbr 50 ------- 0 0.0 3.0 26 105
+ 1.082 1 2 cbr 50 ------- 0 1.0 3.0 82 110
- 1.082 1 2 cbr 50 ------- 0 1.0 3.0 82 110
r 1.082267 1 2 cbr 50 ------- 0 1.0 3.0 80 107
+ 1.082267 2 3 cbr 50 ------- 0 1.0 3.0 80 107
- 1.082267 2 3 cbr 50 ------- 0 1.0 3.0 80 107
r 1.082467 2 3 cbr 50 ------- 0 1.0 3.0 78 104
r 1.082633 0 2 cbr 50 ------- 0 0.0 3.0 27 109
+ 1.082633 2 3 cbr 50 ------- 0 0.0 3.0 27 109
- 1.082633 2 3 cbr 50 ------- 0 0.0 3.0 27 109
+ 1.083 1 2 cbr 50 ------- 0 1.0 3.0 83 111
- 1.083 1 2 cbr 50 ------- 0 1.0 3.0 83 111
r 1.083267 1 2 cbr 50 ------- 0 1.0 3.0 81 108
+ 1.083267 2 3 cbr 50 ------- 0 1.0 3.0 81 108
- 1.083267 2 3 cbr 50 ------- 0 1.0 3.0 81 108
r 1.083467 2 3 cbr 50 ------- 0 1.0 3.0 79 106
+ 1.084 1 2 cbr 50 ------- 0 1.0 3.0 84 112
- 1.084 1 2 cbr 50 ------- 0 1.0 3.0 84 112
+ 1.084 0 2 cbr 50 ------- 0 0.0 3.0 28 113
- 1.084 0 2 cbr 50 ------- 0 0.0 3.0 28 113
r 1.084267 1 2 cbr 50 ------- 0 1.0 3.0 82 110
+ 1.084267 2 3 cbr 50 ------- 0 1.0 3.0 82 110
- 1.084267 2 3 cbr 50 ------- 0 1.0 3.0 82 110
r 1.084467 2 3 cbr 50 ------- 0 1.0 3.0 80 107
r 1.084833 2 3 cbr 50 ------- 0 0.0 3.0 27 109