+ 0 1 2 cbr 210 ------- 2 1.0 5.0 0 0
- 0 1 2 cbr 210 ------- 2 1.0 5.0 0 0
+ 0 0 2 tcp 40 ------- 0 0.0 5.1 0 1
- 0 0 2 tcp 40 ------- 0 0.0 5.1 0 1
+ 0.00375 1 2 cbr 210 ------- 2 1.0 5.0 1 2
- 0.00375 1 2 cbr 210 ------- 2 1.0 5.0 1 2
+ 0.0075 1 2 cbr 210 ------- 2 1.0 5.0 2 3
- 0.0075 1 2 cbr 210 ------- 2 1.0 5.0 2 3
+ 0.01125 1 2 cbr 210 ------- 2 1.0 5.0 3 4
- 0.01125 1 2 cbr 210 ------- 2 1.0 5.0 3 4
+ 0.015 1 2 cbr 210 ------- 2 1.0 5.0 4 5
- 0.015 1 2 cbr 210 ------- 2 1.0 5.0 4 5
r 0.015107 0 2 tcp 40 ------- 0 0.0 5.1 0 1
+ 0.015107 2 3 tcp 40 ------- 0 0.0 5.1 0 1
- 0.015107 2 3 tcp 40 ------- 0 0.0 5.1 0 1
r 0.01556 1 2 cbr 210 ------- 2 1.0 5.0 0 0
+ 0.01556 2 3 cbr 210 ------- 2 1.0 5.0 0 0
- 0.01556 2 3 cbr 210 ------- 2 1.0 5.0 0 0
+ 0.01875 1 2 cbr 210 ------- 2 1.0 5.0 5 6
- 0.01875 1 2 cbr 210 ------- 2 1.0 5.0 5 6
r 0.01931 1 2 cbr 210 ------- 2 1.0 5.0 1 2
+ 0.01931 2 3 cbr 210 ------- 2 1.0 5.0 1 2
- 0.01931 2 3 cbr 210 ------- 2 1.0 5.0 1 2
+ 0.0225 1 2 cbr 210 ------- 2 1.0 5.0 6 7
- 0.0225 1 2 cbr 210 ------- 2 1.0 5.0 6 7
r 0.02306 1 2 cbr 210 ------- 2 1.0 5.0 2 3
+ 0.02306 2 3 cbr 210 ------- 2 1.0 5.0 2 3
- 0.02306 2 3 cbr 210 ------- 2 1.0 5.0 2 3
+ 0.02625 1 2 cbr 210 ------- 2 1.0 5.0 7 8
- 0.02625 1 2 cbr 210 ------- 2 1.0 5.0 7 8
r 0.02681 1 2 cbr 210 ------- 2 1.0 5.0 3 4
+ 0.02681 2 3 cbr 210 ------- 2 1.0 5.0 3 4
- 0.02681 2 3 cbr 210 ------- 2 1.0 5.0 3 4
+ 0.03 1 2 cbr 210 ------- 2 1.0 5.0 8 9
- 0.03 1 2 cbr 210 ------- 2 1.0 5.0 8 9
r 0.030213 2 3 tcp 40 ------- 0 0.0 5.1 0 1
h 0.030213 3 6 tcp 40 ------- 0 0.0 5.1 0 1
r 0.03056 1 2 cbr 210 ------- 2 1.0 5.0 4 5
+ 0.03056 2 3 cbr 210 ------- 2 1.0 5.0 4 5
- 0.03056 2 3 cbr 210 ------- 2 1.0 5.0 4 5
r 0.03112 2 3 cbr 210 ------- 2 1.0 5.0 0 0
h 0.03112 3 6 cbr 210 ------- 2 1.0 5.0 0 0
+ 0.03375 1 2 cbr 210 ------- 2 1.0 5.0 9 10
- 0.03375 1 2 cbr 210 ------- 2 1.0 5.0 9 10
r 0.03431 1 2 cbr 210 ------- 2 1.0 5.0 5 6
+ 0.03431 2 3 cbr 210 ------- 2 1.0 5.0 5 6
- 0.03431 2 3 cbr 210 ------- 2 1.0 5.0 5 6
r 0.03487 2 3 cbr 210 ------- 2 1.0 5.0 1 2
h 0.03487 3 6 cbr 210 ------- 2 1.0 5.0 1 2
+ 0.0375 1 2 cbr 210 ------- 2 1.0 5.0 10 11
- 0.0375 1 2 cbr 210 ------- 2 1.0 5.0 10 11
r 0.03806 1 2 cbr 210 ------- 2 1.0 5.0 6 7
+ 0.03806 2 3 cbr 210 ------- 2 1.0 5.0 6 7
- 0.03806 2 3 cbr 210 ------- 2 1.0 5.0 6 7
r 0.03862 2 3 cbr 210 ------- 2 1.0 5.0 2 3
h 0.03862 3 6 cbr 210 ------- 2 1.0 5.0 2 3
+ 0.04125 1 2 cbr 210 ------- 2 1.0 5.0 11 12
- 0.04125 1 2 cbr 210 ------- 2 1.0 5.0 11 12
r 0.04181 1 2 cbr 210 ------- 2 1.0 5.0 7 8
+ 0.04181 2 3 cbr 210 ------- 2 1.0 5.0 7 8
- 0.04181 2 3 cbr 210 ------- 2 1.0 5.0 7 8
r 0.04237 2 3 cbr 210 ------- 2 1.0 5.0 3 4
h 0.04237 3 6 cbr 210 ------- 2 1.0 5.0 3 4
+ 0.045 1 2 cbr 210 ------- 2 1.0 5.0 12 13
- 0.045 1 2 cbr 210 ------- 2 1.0 5.0 12 13
r 0.04556 1 2 cbr 210 ------- 2 1.0 5.0 8 9
+ 0.04556 2 3 cbr 210 ------- 2 1.0 5.0 8 9
- 0.04556 2 3 cbr 210 ------- 2 1.0 5.0 8 9
r 0.04612 2 3 cbr 210 ------- 2 1.0 5.0 4 5
h 0.04612 3 6 cbr 210 ------- 2 1.0 5.0 4 5
+ 0.04875 1 2 cbr 210 ------- 2 1.0 5.0 13 14
- 0.04875 1 2 cbr 210 ------- 2 1.0 5.0 13 14
r 0.04931 1 2 cbr 210 ------- 2 1.0 5.0 9 10
+ 0.04931 2 3 cbr 210 ------- 2 1.0 5.0 9 10
- 0.04931 2 3 cbr 210 ------- 2 1.0 5.0 9 10
r 0.04987 2 3 cbr 210 ------- 2 1.0 5.0 5 6
h 0.04987 3 6 cbr 210 ------- 2 1.0 5.0 5 6
+ 0.0525 1 2 cbr 210 ------- 2 1.0 5.0 14 15
- 0.0525 1 2 cbr 210 ------- 2 1.0 5.0 14 15
r 0.05306 1 2 cbr 210 ------- 2 1.0 5.0 10 11
+ 0.05306 2 3 cbr 210 ------- 2 1.0 5.0 10 11
- 0.05306 2 3 cbr 210 ------- 2 1.0 5.0 10 11
r 0.05362 2 3 cbr 210 ------- 2 1.0 5.0 6 7
h 0.05362 3 6 cbr 210 ------- 2 1.0 5.0 6 7
+ 0.05625 1 2 cbr 210 ------- 2 1.0 5.0 15 16
- 0.05625 1 2 cbr 210 ------- 2 1.0 5.0 15 16
r 0.05681 1 2 cbr 210 ------- 2 1.0 5.0 11 12
+ 0.05681 2 3 cbr 210 ------- 2 1.0 5.0 11 12
- 0.05681 2 3 cbr 210 ------- 2 1.0 5.0 11 12
r 0.05737 2 3 cbr 210 ------- 2 1.0 5.0 7 8
h 0.05737 3 6 cbr 210 ------- 2 1.0 5.0 7 8
+ 0.06 1 2 cbr 210 ------- 2 1.0 5.0 16 17
- 0.06 1 2 cbr 210 ------- 2 1.0 5.0 16 17
r 0.06056 1 2 cbr 210 ------- 2 1.0 5.0 12 13
+ 0.06056 2 3 cbr 210 ------- 2 1.0 5.0 12 13
- 0.06056 2 3 cbr 210 ------- 2 1.0 5.0 12 13
r 0.06112 2 3 cbr 210 ------- 2 1.0 5.0 8 9
h 0.06112 3 6 cbr 210 ------- 2 1.0 5.0 8 9
+ 0.06375 1 2 cbr 210 ------- 2 1.0 5.0 17 18
- 0.06375 1 2 cbr 210 ------- 2 1.0 5.0 17 18
r 0.06431 1 2 cbr 210 ------- 2 1.0 5.0 13 14
+ 0.06431 2 3 cbr 210 ------- 2 1.0 5.0 13 14
- 0.06431 2 3 cbr 210 ------- 2 1.0 5.0 13 14
r 0.06487 2 3 cbr 210 ------- 2 1.0 5.0 9 10
h 0.06487 3 6 cbr 210 ------- 2 1.0 5.0 9 10
+ 0.0675 1 2 cbr 210 ------- 2 1.0 5.0 18 19
- 0.0675 1 2 cbr 210 ------- 2 1.0 5.0 18 19
r 0.06806 1 2 cbr 210 ------- 2 1.0 5.0 14 15
+ 0.06806 2 3 cbr 210 ------- 2 1.0 5.0 14 15
- 0.06806 2 3 cbr 210 ------- 2 1.0 5.0 14 15
r 0.06862 2 3 cbr 210 ------- 2 1.0 5.0 10 11
h 0.06862 3 6 cbr 210 ------- 2 1.0 5.0 10 11
+ 0.070213 3 6 tcp 40 ------- 0 0.0 5.1 0 1
- 0.070213 3 6 tcp 40 ------- 0 0.0 5.1 0 1
d 0.070217 4 6 tcp 40 ------- 0 0.0 5.1 0 1
+ 0.07112 3 6 cbr 210 ------- 2 1.0 5.0 0 0
- 0.07112 3 6 cbr 210 ------- 2 1.0 5.0 0 0
d 0.071124 4 6 cbr 210 ------- 2 1.0 5.0 0 0
+ 0.07125 1 2 cbr 210 ------- 2 1.0 5.0 19 20
- 0.07125 1 2 cbr 210 ------- 2 1.0 5.0 19 20
r 0.07181 1 2 cbr 210 ------- 2 1.0 5.0 15 16
+ 0.07181 2 3 cbr 210 ------- 2 1.0 5.0 15 16
- 0.07181 2 3 cbr 210 ------- 2 1.0 5.0 15 16
r 0.07237 2 3 cbr 210 ------- 2 1.0 5.0 11 12
h 0.07237 3 6 cbr 210 ------- 2 1.0 5.0 11 12
+ 0.07487 3 6 cbr 210 ------- 2 1.0 5.0 1 2
- 0.07487 3 6 cbr 210 ------- 2 1.0 5.0 1 2
d 0.074874 4 6 cbr 210 ------- 2 1.0 5.0 1 2
+ 0.075 1 2 cbr 210 ------- 2 1.0 5.0 20 21
- 0.075 1 2 cbr 210 ------- 2 1.0 5.0 20 21
r 0.07556 1 2 cbr 210 ------- 2 1.0 5.0 16 17
+ 0.07556 2 3 cbr 210 ------- 2 1.0 5.0 16 17
- 0.07556 2 3 cbr 210 ------- 2 1.0 5.0 16 17
r 0.07612 2 3 cbr 210 ------- 2 1.0 5.0 12 13
h 0.07612 3 6 cbr 210 ------- 2 1.0 5.0 12 13
+ 0.07862 3 6 cbr 210 ------- 2 1.0 5.0 2 3
- 0.07862 3 6 cbr 210 ------- 2 1.0 5.0 2 3
d 0.078624 4 6 cbr 210 ------- 2 1.0 5.0 2 3
+ 0.07875 1 2 cbr 210 ------- 2 1.0 5.0 21 22
- 0.07875 1 2 cbr 210 ------- 2 1.0 5.0 21 22
r 0.07931 1 2 cbr 210 ------- 2 1.0 5.0 17 18
+ 0.07931 2 3 cbr 210 ------- 2 1.0 5.0 17 18
- 0.07931 2 3 cbr 210 ------- 2 1.0 5.0 17 18
r 0.07987 2 3 cbr 210 ------- 2 1.0 5.0 13 14
h 0.07987 3 6 cbr 210 ------- 2 1.0 5.0 13 14
+ 0.08237 3 6 cbr 210 ------- 2 1.0 5.0 3 4
- 0.08237 3 6 cbr 210 ------- 2 1.0 5.0 3 4
d 0.082374 4 6 cbr 210 ------- 2 1.0 5.0 3 4
+ 0.0825 1 2 cbr 210 ------- 2 1.0 5.0 22 23
- 0.0825 1 2 cbr 210 ------- 2 1.0 5.0 22 23
r 0.08306 1 2 cbr 210 ------- 2 1.0 5.0 18 19
+ 0.08306 2 3 cbr 210 ------- 2 1.0 5.0 18 19
- 0.08306 2 3 cbr 210 ------- 2 1.0 5.0 18 19
r 0.08362 2 3 cbr 210 ------- 2 1.0 5.0 14 15
h 0.08362 3 6 cbr 210 ------- 2 1.0 5.0 14 15
+ 0.08612 3 6 cbr 210 ------- 2 1.0 5.0 4 5
- 0.08612 3 6 cbr 210 ------- 2 1.0 5.0 4 5
d 0.086124 4 6 cbr 210 ------- 2 1.0 5.0 4 5
+ 0.08625 1 2 cbr 210 ------- 2 1.0 5.0 23 24
- 0.08625 1 2 cbr 210 ------- 2 1.0 5.0 23 24
r 0.08681 1 2 cbr 210 ------- 2 1.0 5.0 19 20
+ 0.08681 2 3 cbr 210 ------- 2 1.0 5.0 19 20
- 0.08681 2 3 cbr 210 ------- 2 1.0 5.0 19 20
r 0.08737 2 3 cbr 210 ------- 2 1.0 5.0 15 16
h 0.08737 3 6 cbr 210 ------- 2 1.0 5.0 15 16
+ 0.08987 3 6 cbr 210 ------- 2 1.0 5.0 5 6
- 0.08987 3 6 cbr 210 ------- 2 1.0 5.0 5 6
d 0.089874 4 6 cbr 210 ------- 2 1.0 5.0 5 6
+ 0.09 1 2 cbr 210 ------- 2 1.0 5.0 24 25
- 0.09 1 2 cbr 210 ------- 2 1.0 5.0 24 25
r 0.09056 1 2 cbr 210 ------- 2 1.0 5.0 20 21
+ 0.09056 2 3 cbr 210 ------- 2 1.0 5.0 20 21
- 0.09056 2 3 cbr 210 ------- 2 1.0 5.0 20 21
r 0.09112 2 3 cbr 210 ------- 2 1.0 5.0 16 17
h 0.09112 3 6 cbr 210 ------- 2 1.0 5.0 16 17
+ 0.09362 3 6 cbr 210 ------- 2 1.0 5.0 6 7
- 0.09362 3 6 cbr 210 ------- 2 1.0 5.0 6 7
d 0.093624 4 6 cbr 210 ------- 2 1.0 5.0 6 7
+ 0.09375 1 2 cbr 210 ------- 2 1.0 5.0 25 26
- 0.09375 1 2 cbr 210 ------- 2 1.0 5.0 25 26
r 0.09431 1 2 cbr 210 ------- 2 1.0 5.0 21 22
+ 0.09431 2 3 cbr 210 ------- 2 1.0 5.0 21 22
- 0.09431 2 3 cbr 210 ------- 2 1.0 5.0 21 22
r 0.09487 2 3 cbr 210 ------- 2 1.0 5.0 17 18
h 0.09487 3 6 cbr 210 ------- 2 1.0 5.0 17 18
+ 0.09737 3 6 cbr 210 ------- 2 1.0 5.0 7 8
- 0.09737 3 6 cbr 210 ------- 2 1.0 5.0 7 8
d 0.097374 4 6 cbr 210 ------- 2 1.0 5.0 7 8
+ 0.0975 1 2 cbr 210 ------- 2 1.0 5.0 26 27
- 0.0975 1 2 cbr 210 ------- 2 1.0 5.0 26 27
r 0.09806 1 2 cbr 210 ------- 2 1.0 5.0 22 23
+ 0.09806 2 3 cbr 210 ------- 2 1.0 5.0 22 23
- 0.09806 2 3 cbr 210 ------- 2 1.0 5.0 22 23
r 0.09862 2 3 cbr 210 ------- 2 1.0 5.0 18 19
h 0.09862 3 6 cbr 210 ------- 2 1.0 5.0 18 19
+ 0.10112 3 6 cbr 210 ------- 2 1.0 5.0 8 9
- 0.10112 3 6 cbr 210 ------- 2 1.0 5.0 8 9
d 0.101124 4 6 cbr 210 ------- 2 1.0 5.0 8 9
+ 0.10125 1 2 cbr 210 ------- 2 1.0 5.0 27 28
- 0.10125 1 2 cbr 210 ------- 2 1.0 5.0 27 28
r 0.10181 1 2 cbr 210 ------- 2 1.0 5.0 23 24
+ 0.10181 2 3 cbr 210 ------- 2 1.0 5.0 23 24
- 0.10181 2 3 cbr 210 ------- 2 1.0 5.0 23 24
r 0.10237 2 3 cbr 210 ------- 2 1.0 5.0 19 20
h 0.10237 3 6 cbr 210 ------- 2 1.0 5.0 19 20
+ 0.10487 3 6 cbr 210 ------- 2 1.0 5.0 9 10
- 0.10487 3 6 cbr 210 ------- 2 1.0 5.0 9 10
d 0.104874 4 6 cbr 210 ------- 2 1.0 5.0 9 10
+ 0.105 1 2 cbr 210 ------- 2 1.0 5.0 28 29
- 0.105 1 2 cbr 210 ------- 2 1.0 5.0 28 29
r 0.10556 1 2 cbr 210 ------- 2 1.0 5.0 24 25
+ 0.10556 2 3 cbr 210 ------- 2 1.0 5.0 24 25
- 0.10556 2 3 cbr 210 ------- 2 1.0 5.0 24 25
r 0.10612 2 3 cbr 210 ------- 2 1.0 5.0 20 21
h 0.10612 3 6 cbr 210 ------- 2 1.0 5.0 20 21
+ 0.10862 3 6 cbr 210 ------- 2 1.0 5.0 10 11
- 0.10862 3 6 cbr 210 ------- 2 1.0 5.0 10 11
d 0.108624 4 6 cbr 210 ------- 2 1.0 5.0 10 11
+ 0.10875 1 2 cbr 210 ------- 2 1.0 5.0 29 30
- 0.10875 1 2 cbr 210 ------- 2 1.0 5.0 29 30
r 0.10931 1 2 cbr 210 ------- 2 1.0 5.0 25 26
+ 0.10931 2 3 cbr 210 ------- 2 1.0 5.0 25 26
- 0.10931 2 3 cbr 210 ------- 2 1.0 5.0 25 26
r 0.10987 2 3 cbr 210 ------- 2 1.0 5.0 21 22
h 0.10987 3 6 cbr 210 ------- 2 1.0 5.0 21 22
r 0.110217 6 5 tcp 40 ------- 0 0.0 5.1 0 1
h 0.110217 5 6 ack 40 ------- 0 5.1 0.0 0 31
r 0.111124 6 5 cbr 210 ------- 2 1.0 5.0 0 0
+ 0.11237 3 6 cbr 210 ------- 2 1.0 5.0 11 12
- 0.11237 3 6 cbr 210 ------- 2 1.0 5.0 11 12
d 0.112374 4 6 cbr 210 ------- 2 1.0 5.0 11 12
+ 0.1125 1 2 cbr 210 ------- 2 1.0 5.0 30 32
- 0.1125 1 2 cbr 210 ------- 2 1.0 5.0 30 32
r 0.11306 1 2 cbr 210 ------- 2 1.0 5.0 26 27
+ 0.11306 2 3 cbr 210 ------- 2 1.0 5.0 26 27
- 0.11306 2 3 cbr 210 ------- 2 1.0 5.0 26 27
r 0.11362 2 3 cbr 210 ------- 2 1.0 5.0 22 23
h 0.11362 3 6 cbr 210 ------- 2 1.0 5.0 22 23
r 0.114874 6 5 cbr 210 ------- 2 1.0 5.0 1 2
+ 0.11612 3 6 cbr 210 ------- 2 1.0 5.0 12 13
- 0.11612 3 6 cbr 210 ------- 2 1.0 5.0 12 13
d 0.116124 4 6 cbr 210 ------- 2 1.0 5.0 12 13
+ 0.11625 1 2 cbr 210 ------- 2 1.0 5.0 31 33
- 0.11625 1 2 cbr 210 ------- 2 1.0 5.0 31 33
r 0.11681 1 2 cbr 210 ------- 2 1.0 5.0 27 28
+ 0.11681 2 3 cbr 210 ------- 2 1.0 5.0 27 28
- 0.11681 2 3 cbr 210 ------- 2 1.0 5.0 27 28
r 0.11737 2 3 cbr 210 ------- 2 1.0 5.0 23 24
h 0.11737 3 6 cbr 210 ------- 2 1.0 5.0 23 24
r 0.118624 6 5 cbr 210 ------- 2 1.0 5.0 2 3
+ 0.11987 3 6 cbr 210 ------- 2 1.0 5.0 13 14
- 0.11987 3 6 cbr 210 ------- 2 1.0 5.0 13 14
d 0.119874 4 6 cbr 210 ------- 2 1.0 5.0 13 14
+ 0.12 1 2 cbr 210 ------- 2 1.0 5.0 32 34
- 0.12 1 2 cbr 210 ------- 2 1.0 5.0 32 34
r 0.12056 1 2 cbr 210 ------- 2 1.0 5.0 28 29
+ 0.12056 2 3 cbr 210 ------- 2 1.0 5.0 28 29
- 0.12056 2 3 cbr 210 ------- 2 1.0 5.0 28 29
r 0.12112 2 3 cbr 210 ------- 2 1.0 5.0 24 25
h 0.12112 3 6 cbr 210 ------- 2 1.0 5.0 24 25
r 0.122374 6 5 cbr 210 ------- 2 1.0 5.0 3 4
+ 0.12362 3 6 cbr 210 ------- 2 1.0 5.0 14 15
- 0.12362 3 6 cbr 210 ------- 2 1.0 5.0 14 15
d 0.123624 4 6 cbr 210 ------- 2 1.0 5.0 14 15
+ 0.12375 1 2 cbr 210 ------- 2 1.0 5.0 33 35
- 0.12375 1 2 cbr 210 ------- 2 1.0 5.0 33 35
r 0.12431 1 2 cbr 210 ------- 2 1.0 5.0 29 30
+ 0.12431 2 3 cbr 210 ------- 2 1.0 5.0 29 30
- 0.12431 2 3 cbr 210 ------- 2 1.0 5.0 29 30
r 0.12487 2 3 cbr 210 ------- 2 1.0 5.0 25 26
h 0.12487 3 6 cbr 210 ------- 2 1.0 5.0 25 26
r 0.126124 6 5 cbr 210 ------- 2 1.0 5.0 4 5
+ 0.12737 3 6 cbr 210 ------- 2 1.0 5.0 15 16
- 0.12737 3 6 cbr 210 ------- 2 1.0 5.0 15 16
d 0.127374 4 6 cbr 210 ------- 2 1.0 5.0 15 16
+ 0.1275 1 2 cbr 210 ------- 2 1.0 5.0 34 36
- 0.1275 1 2 cbr 210 ------- 2 1.0 5.0 34 36
r 0.12806 1 2 cbr 210 ------- 2 1.0 5.0 30 32
+ 0.12806 2 3 cbr 210 ------- 2 1.0 5.0 30 32
- 0.12806 2 3 cbr 210 ------- 2 1.0 5.0 30 32
r 0.12862 2 3 cbr 210 ------- 2 1.0 5.0 26 27
h 0.12862 3 6 cbr 210 ------- 2 1.0 5.0 26 27
r 0.129874 6 5 cbr 210 ------- 2 1.0 5.0 5 6
+ 0.13112 3 6 cbr 210 ------- 2 1.0 5.0 16 17
- 0.13112 3 6 cbr 210 ------- 2 1.0 5.0 16 17
d 0.131124 4 6 cbr 210 ------- 2 1.0 5.0 16 17
+ 0.13125 1 2 cbr 210 ------- 2 1.0 5.0 35 37
- 0.13125 1 2 cbr 210 ------- 2 1.0 5.0 35 37
r 0.13181 1 2 cbr 210 ------- 2 1.0 5.0 31 33
+ 0.13181 2 3 cbr 210 ------- 2 1.0 5.0 31 33
- 0.13181 2 3 cbr 210 ------- 2 1.0 5.0 31 33
r 0.13237 2 3 cbr 210 ------- 2 1.0 5.0 27 28
h 0.13237 3 6 cbr 210 ------- 2 1.0 5.0 27 28
r 0.133624 6 5 cbr 210 ------- 2 1.0 5.0 6 7
+ 0.13487 3 6 cbr 210 ------- 2 1.0 5.0 17 18
- 0.13487 3 6 cbr 210 ------- 2 1.0 5.0 17 18
d 0.134874 4 6 cbr 210 ------- 2 1.0 5.0 17 18
+ 0.135 1 2 cbr 210 ------- 2 1.0 5.0 36 38
- 0.135 1 2 cbr 210 ------- 2 1.0 5.0 36 38
r 0.13556 1 2 cbr 210 ------- 2 1.0 5.0 32 34
+ 0.13556 2 3 cbr 210 ------- 2 1.0 5.0 32 34
- 0.13556 2 3 cbr 210 ------- 2 1.0 5.0 32 34
r 0.13612 2 3 cbr 210 ------- 2 1.0 5.0 28 29
h 0.13612 3 6 cbr 210 ------- 2 1.0 5.0 28 29
r 0.137374 6 5 cbr 210 ------- 2 1.0 5.0 7 8
+ 0.13862 3 6 cbr 210 ------- 2 1.0 5.0 18 19
- 0.13862 3 6 cbr 210 ------- 2 1.0 5.0 18 19
d 0.138624 4 6 cbr 210 ------- 2 1.0 5.0 18 19
+ 0.13875 1 2 cbr 210 ------- 2 1.0 5.0 37 39
- 0.13875 1 2 cbr 210 ------- 2 1.0 5.0 37 39
r 0.13931 1 2 cbr 210 ------- 2 1.0 5.0 33 35
+ 0.13931 2 3 cbr 210 ------- 2 1.0 5.0 33 35
- 0.13931 2 3 cbr 210 ------- 2 1.0 5.0 33 35
r 0.13987 2 3 cbr 210 ------- 2 1.0 5.0 29 30
h 0.13987 3 6 cbr 210 ------- 2 1.0 5.0 29 30
r 0.141124 6 5 cbr 210 ------- 2 1.0 5.0 8 9
+ 0.14237 3 6 cbr 210 ------- 2 1.0 5.0 19 20
- 0.14237 3 6 cbr 210 ------- 2 1.0 5.0 19 20
d 0.142374 4 6 cbr 210 ------- 2 1.0 5.0 19 20
+ 0.1425 1 2 cbr 210 ------- 2 1.0 5.0 38 40
- 0.1425 1 2 cbr 210 ------- 2 1.0 5.0 38 40
r 0.14306 1 2 cbr 210 ------- 2 1.0 5.0 34 36
+ 0.14306 2 3 cbr 210 ------- 2 1.0 5.0 34 36
- 0.14306 2 3 cbr 210 ------- 2 1.0 5.0 34 36
r 0.14362 2 3 cbr 210 ------- 2 1.0 5.0 30 32
h 0.14362 3 6 cbr 210 ------- 2 1.0 5.0 30 32
r 0.144874 6 5 cbr 210 ------- 2 1.0 5.0 9 10
+ 0.14612 3 6 cbr 210 ------- 2 1.0 5.0 20 21
- 0.14612 3 6 cbr 210 ------- 2 1.0 5.0 20 21
d 0.146124 4 6 cbr 210 ------- 2 1.0 5.0 20 21
+ 0.14625 1 2 cbr 210 ------- 2 1.0 5.0 39 41
- 0.14625 1 2 cbr 210 ------- 2 1.0 5.0 39 41
r 0.14681 1 2 cbr 210 ------- 2 1.0 5.0 35 37
+ 0.14681 2 3 cbr 210 ------- 2 1.0 5.0 35 37
- 0.14681 2 3 cbr 210 ------- 2 1.0 5.0 35 37
r 0.14737 2 3 cbr 210 ------- 2 1.0 5.0 31 33
h 0.14737 3 6 cbr 210 ------- 2 1.0 5.0 31 33
r 0.148624 6 5 cbr 210 ------- 2 1.0 5.0 10 11
+ 0.14987 3 6 cbr 210 ------- 2 1.0 5.0 21 22
- 0.14987 3 6 cbr 210 ------- 2 1.0 5.0 21 22
d 0.149874 4 6 cbr 210 ------- 2 1.0 5.0 21 22
+ 0.15 1 2 cbr 210 ------- 2 1.0 5.0 40 42
- 0.15 1 2 cbr 210 ------- 2 1.0 5.0 40 42
+ 0.150217 5 6 ack 40 ------- 0 5.1 0.0 0 31
- 0.150217 5 6 ack 40 ------- 0 5.1 0.0 0 31
d 0.150221 4 6 ack 40 ------- 0 5.1 0.0 0 31
r 0.15056 1 2 cbr 210 ------- 2 1.0 5.0 36 38
+ 0.15056 2 3 cbr 210 ------- 2 1.0 5.0 36 38
- 0.15056 2 3 cbr 210 ------- 2 1.0 5.0 36 38
r 0.15112 2 3 cbr 210 ------- 2 1.0 5.0 32 34
h 0.15112 3 6 cbr 210 ------- 2 1.0 5.0 32 34
r 0.152374 6 5 cbr 210 ------- 2 1.0 5.0 11 12
+ 0.15362 3 6 cbr 210 ------- 2 1.0 5.0 22 23
- 0.15362 3 6 cbr 210 ------- 2 1.0 5.0 22 23
d 0.153624 4 6 cbr 210 ------- 2 1.0 5.0 22 23
+ 0.15375 1 2 cbr 210 ------- 2 1.0 5.0 41 43
- 0.15375 1 2 cbr 210 ------- 2 1.0 5.0 41 43
r 0.15431 1 2 cbr 210 ------- 2 1.0 5.0 37 39
+ 0.15431 2 3 cbr 210 ------- 2 1.0 5.0 37 39
- 0.15431 2 3 cbr 210 ------- 2 1.0 5.0 37 39
r 0.15487 2 3 cbr 210 ------- 2 1.0 5.0 33 35
h 0.15487 3 6 cbr 210 ------- 2 1.0 5.0 33 35
r 0.156124 6 5 cbr 210 ------- 2 1.0 5.0 12 13
+ 0.15737 3 6 cbr 210 ------- 2 1.0 5.0 23 24
- 0.15737 3 6 cbr 210 ------- 2 1.0 5.0 23 24
d 0.157374 4 6 cbr 210 ------- 2 1.0 5.0 23 24
+ 0.1575 1 2 cbr 210 ------- 2 1.0 5.0 42 44
- 0.1575 1 2 cbr 210 ------- 2 1.0 5.0 42 44
r 0.15806 1 2 cbr 210 ------- 2 1.0 5.0 38 40
+ 0.15806 2 3 cbr 210 ------- 2 1.0 5.0 38 40
- 0.15806 2 3 cbr 210 ------- 2 1.0 5.0 38 40
r 0.15862 2 3 cbr 210 ------- 2 1.0 5.0 34 36
h 0.15862 3 6 cbr 210 ------- 2 1.0 5.0 34 36
r 0.159874 6 5 cbr 210 ------- 2 1.0 5.0 13 14
+ 0.16112 3 6 cbr 210 ------- 2 1.0 5.0 24 25
- 0.16112 3 6 cbr 210 ------- 2 1.0 5.0 24 25
d 0.161124 4 6 cbr 210 ------- 2 1.0 5.0 24 25
+ 0.16125 1 2 cbr 210 ------- 2 1.0 5.0 43 45
- 0.16125 1 2 cbr 210 ------- 2 1.0 5.0 43 45
r 0.16181 1 2 cbr 210 ------- 2 1.0 5.0 39 41
+ 0.16181 2 3 cbr 210 ------- 2 1.0 5.0 39 41
- 0.16181 2 3 cbr 210 ------- 2 1.0 5.0 39 41
r 0.16237 2 3 cbr 210 ------- 2 1.0 5.0 35 37
h 0.16237 3 6 cbr 210 ------- 2 1.0 5.0 35 37
r 0.163624 6 5 cbr 210 ------- 2 1.0 5.0 14 15
+ 0.16487 3 6 cbr 210 ------- 2 1.0 5.0 25 26
- 0.16487 3 6 cbr 210 ------- 2 1.0 5.0 25 26
d 0.164874 4 6 cbr 210 ------- 2 1.0 5.0 25 26
+ 0.165 1 2 cbr 210 ------- 2 1.0 5.0 44 46
- 0.165 1 2 cbr 210 ------- 2 1.0 5.0 44 46
r 0.16556 1 2 cbr 210 ------- 2 1.0 5.0 40 42
+ 0.16556 2 3 cbr 210 ------- 2 1.0 5.0 40 42
- 0.16556 2 3 cbr 210 ------- 2 1.0 5.0 40 42
r 0.16612 2 3 cbr 210 ------- 2 1.0 5.0 36 38
h 0.16612 3 6 cbr 210 ------- 2 1.0 5.0 36 38
r 0.167374 6 5 cbr 210 ------- 2 1.0 5.0 15 16
+ 0.16862 3 6 cbr 210 ------- 2 1.0 5.0 26 27
- 0.16862 3 6 cbr 210 ------- 2 1.0 5.0 26 27
d 0.168624 4 6 cbr 210 ------- 2 1.0 5.0 26 27
+ 0.16875 1 2 cbr 210 ------- 2 1.0 5.0 45 47
- 0.16875 1 2 cbr 210 ------- 2 1.0 5.0 45 47
r 0.16931 1 2 cbr 210 ------- 2 1.0 5.0 41 43
+ 0.16931 2 3 cbr 210 ------- 2 1.0 5.0 41 43
- 0.16931 2 3 cbr 210 ------- 2 1.0 5.0 41 43
r 0.16987 2 3 cbr 210 ------- 2 1.0 5.0 37 39
h 0.16987 3 6 cbr 210 ------- 2 1.0 5.0 37 39
r 0.171124 6 5 cbr 210 ------- 2 1.0 5.0 16 17
+ 0.17237 3 6 cbr 210 ------- 2 1.0 5.0 27 28
- 0.17237 3 6 cbr 210 ------- 2 1.0 5.0 27 28
d 0.172374 4 6 cbr 210 ------- 2 1.0 5.0 27 28
+ 0.1725 1 2 cbr 210 ------- 2 1.0 5.0 46 48
- 0.1725 1 2 cbr 210 ------- 2 1.0 5.0 46 48
r 0.17306 1 2 cbr 210 ------- 2 1.0 5.0 42 44
+ 0.17306 2 3 cbr 210 ------- 2 1.0 5.0 42 44
- 0.17306 2 3 cbr 210 ------- 2 1.0 5.0 42 44
r 0.17362 2 3 cbr 210 ------- 2 1.0 5.0 38 40
h 0.17362 3 6 cbr 210 ------- 2 1.0 5.0 38 40
r 0.174874 6 5 cbr 210 ------- 2 1.0 5.0 17 18
+ 0.17612 3 6 cbr 210 ------- 2 1.0 5.0 28 29
- 0.17612 3 6 cbr 210 ------- 2 1.0 5.0 28 29
d 0.176124 4 6 cbr 210 ------- 2 1.0 5.0 28 29
+ 0.17625 1 2 cbr 210 ------- 2 1.0 5.0 47 49
- 0.17625 1 2 cbr 210 ------- 2 1.0 5.0 47 49
r 0.17681 1 2 cbr 210 ------- 2 1.0 5.0 43 45
+ 0.17681 2 3 cbr 210 ------- 2 1.0 5.0 43 45
- 0.17681 2 3 cbr 210 ------- 2 1.0 5.0 43 45
r 0.17737 2 3 cbr 210 ------- 2 1.0 5.0 39 41
h 0.17737 3 6 cbr 210 ------- 2 1.0 5.0 39 41
r 0.178624 6 5 cbr 210 ------- 2 1.0 5.0 18 19
+ 0.17987 3 6 cbr 210 ------- 2 1.0 5.0 29 30
- 0.17987 3 6 cbr 210 ------- 2 1.0 5.0 29 30
d 0.179874 4 6 cbr 210 ------- 2 1.0 5.0 29 30
+ 0.18 1 2 cbr 210 ------- 2 1.0 5.0 48 50
- 0.18 1 2 cbr 210 ------- 2 1.0 5.0 48 50
r 0.18056 1 2 cbr 210 ------- 2 1.0 5.0 44 46
+ 0.18056 2 3 cbr 210 ------- 2 1.0 5.0 44 46
- 0.18056 2 3 cbr 210 ------- 2 1.0 5.0 44 46
r 0.18112 2 3 cbr 210 ------- 2 1.0 5.0 40 42
h 0.18112 3 6 cbr 210 ------- 2 1.0 5.0 40 42
r 0.182374 6 5 cbr 210 ------- 2 1.0 5.0 19 20
+ 0.18362 3 6 cbr 210 ------- 2 1.0 5.0 30 32
- 0.18362 3 6 cbr 210 ------- 2 1.0 5.0 30 32
d 0.183624 4 6 cbr 210 ------- 2 1.0 5.0 30 32
+ 0.18375 1 2 cbr 210 ------- 2 1.0 5.0 49 51
- 0.18375 1 2 cbr 210 ------- 2 1.0 5.0 49 51
r 0.18431 1 2 cbr 210 ------- 2 1.0 5.0 45 47
+ 0.18431 2 3 cbr 210 ------- 2 1.0 5.0 45 47
- 0.18431 2 3 cbr 210 ------- 2 1.0 5.0 45 47
r 0.18487 2 3 cbr 210 ------- 2 1.0 5.0 41 43
h 0.18487 3 6 cbr 210 ------- 2 1.0 5.0 41 43
r 0.186124 6 5 cbr 210 ------- 2 1.0 5.0 20 21
+ 0.18737 3 6 cbr 210 ------- 2 1.0 5.0 31 33
- 0.18737 3 6 cbr 210 ------- 2 1.0 5.0 31 33
d 0.187374 4 6 cbr 210 ------- 2 1.0 5.0 31 33
+ 0.1875 1 2 cbr 210 ------- 2 1.0 5.0 50 52
- 0.1875 1 2 cbr 210 ------- 2 1.0 5.0 50 52
r 0.18806 1 2 cbr 210 ------- 2 1.0 5.0 46 48
+ 0.18806 2 3 cbr 210 ------- 2 1.0 5.0 46 48
- 0.18806 2 3 cbr 210 ------- 2 1.0 5.0 46 48
r 0.18862 2 3 cbr 210 ------- 2 1.0 5.0 42 44
h 0.18862 3 6 cbr 210 ------- 2 1.0 5.0 42 44
r 0.189874 6 5 cbr 210 ------- 2 1.0 5.0 21 22
r 0.190221 6 3 ack 40 ------- 0 5.1 0.0 0 31
+ 0.190221 3 2 ack 40 ------- 0 5.1 0.0 0 31
- 0.190221 3 2 ack 40 ------- 0 5.1 0.0 0 31
+ 0.19112 3 6 cbr 210 ------- 2 1.0 5.0 32 34
- 0.19112 3 6 cbr 210 ------- 2 1.0 5.0 32 34
d 0.191124 4 6 cbr 210 ------- 2 1.0 5.0 32 34
+ 0.19125 1 2 cbr 210 ------- 2 1.0 5.0 51 53
- 0.19125 1 2 cbr 210 ------- 2 1.0 5.0 51 53
r 0.19181 1 2 cbr 210 ------- 2 1.0 5.0 47 49
+ 0.19181 2 3 cbr 210 ------- 2 1.0 5.0 47 49
- 0.19181 2 3 cbr 210 ------- 2 1.0 5.0 47 49
r 0.19237 2 3 cbr 210 ------- 2 1.0 5.0 43 45
h 0.19237 3 6 cbr 210 ------- 2 1.0 5.0 43 45
r 0.193624 6 5 cbr 210 ------- 2 1.0 5.0 22 23
+ 0.19487 3 6 cbr 210 ------- 2 1.0 5.0 33 35
- 0.19487 3 6 cbr 210 ------- 2 1.0 5.0 33 35
d 0.194874 4 6 cbr 210 ------- 2 1.0 5.0 33 35
+ 0.195 1 2 cbr 210 ------- 2 1.0 5.0 52 54
- 0.195 1 2 cbr 210 ------- 2 1.0 5.0 52 54
r 0.19556 1 2 cbr 210 ------- 2 1.0 5.0 48 50
+ 0.19556 2 3 cbr 210 ------- 2 1.0 5.0 48 50
- 0.19556 2 3 cbr 210 ------- 2 1.0 5.0 48 50
r 0.19612 2 3 cbr 210 ------- 2 1.0 5.0 44 46
h 0.19612 3 6 cbr 210 ------- 2 1.0 5.0 44 46
r 0.197374 6 5 cbr 210 ------- 2 1.0 5.0 23 24
+ 0.19862 3 6 cbr 210 ------- 2 1.0 5.0 34 36
- 0.19862 3 6 cbr 210 ------- 2 1.0 5.0 34 36
d 0.198624 4 6 cbr 210 ------- 2 1.0 5.0 34 36
+ 0.19875 1 2 cbr 210 ------- 2 1.0 5.0 53 55
- 0.19875 1 2 cbr 210 ------- 2 1.0 5.0 53 55
r 0.19931 1 2 cbr 210 ------- 2 1.0 5.0 49 51
+ 0.19931 2 3 cbr 210 ------- 2 1.0 5.0 49 51
- 0.19931 2 3 cbr 210 ------- 2 1.0 5.0 49 51
r 0.19987 2 3 cbr 210 ------- 2 1.0 5.0 45 47
h 0.19987 3 6 cbr 210 ------- 2 1.0 5.0 45 47
r 0.201124 6 5 cbr 210 ------- 2 1.0 5.0 24 25
+ 0.20237 3 6 cbr 210 ------- 2 1.0 5.0 35 37
- 0.20237 3 6 cbr 210 ------- 2 1.0 5.0 35 37
d 0.202374 4 6 cbr 210 ------- 2 1.0 5.0 35 37
+ 0.2025 1 2 cbr 210 ------- 2 1.0 5.0 54 56
- 0.2025 1 2 cbr 210 ------- 2 1.0 5.0 54 56
r 0.20306 1 2 cbr 210 ------- 2 1.0 5.0 50 52
+ 0.20306 2 3 cbr 210 ------- 2 1.0 5.0 50 52
- 0.20306 2 3 cbr 210 ------- 2 1.0 5.0 50 52
r 0.20362 2 3 cbr 210 ------- 2 1.0 5.0 46 48
h 0.20362 3 6 cbr 210 ------- 2 1.0 5.0 46 48
r 0.204874 6 5 cbr 210 ------- 2 1.0 5.0 25 26
r 0.205328 3 2 ack 40 ------- 0 5.1 0.0 0 31
+ 0.205328 2 0 ack 40 ------- 0 5.1 0.0 0 31
- 0.205328 2 0 ack 40 ------- 0 5.1 0.0 0 31
+ 0.20612 3 6 cbr 210 ------- 2 1.0 5.0 36 38
- 0.20612 3 6 cbr 210 ------- 2 1.0 5.0 36 38
d 0.206124 4 6 cbr 210 ------- 2 1.0 5.0 36 38
+ 0.20625 1 2 cbr 210 ------- 2 1.0 5.0 55 57
- 0.20625 1 2 cbr 210 ------- 2 1.0 5.0 55 57
r 0.20681 1 2 cbr 210 ------- 2 1.0 5.0 51 53
+ 0.20681 2 3 cbr 210 ------- 2 1.0 5.0 51 53
- 0.20681 2 3 cbr 210 ------- 2 1.0 5.0 51 53
r 0.20737 2 3 cbr 210 ------- 2 1.0 5.0 47 49
h 0.20737 3 6 cbr 210 ------- 2 1.0 5.0 47 49
r 0.208624 6 5 cbr 210 ------- 2 1.0 5.0 26 27
+ 0.20987 3 6 cbr 210 ------- 2 1.0 5.0 37 39
- 0.20987 3 6 cbr 210 ------- 2 1.0 5.0 37 39
d 0.209874 4 6 cbr 210 ------- 2 1.0 5.0 37 39
+ 0.21 1 2 cbr 210 ------- 2 1.0 5.0 56 58
- 0.21 1 2 cbr 210 ------- 2 1.0 5.0 56 58
r 0.21056 1 2 cbr 210 ------- 2 1.0 5.0 52 54
+ 0.21056 2 3 cbr 210 ------- 2 1.0 5.0 52 54
- 0.21056 2 3 cbr 210 ------- 2 1.0 5.0 52 54
r 0.21112 2 3 cbr 210 ------- 2 1.0 5.0 48 50
h 0.21112 3 6 cbr 210 ------- 2 1.0 5.0 48 50
r 0.212374 6 5 cbr 210 ------- 2 1.0 5.0 27 28
+ 0.21362 3 6 cbr 210 ------- 2 1.0 5.0 38 40
- 0.21362 3 6 cbr 210 ------- 2 1.0 5.0 38 40
d 0.213624 4 6 cbr 210 ------- 2 1.0 5.0 38 40
+ 0.21375 1 2 cbr 210 ------- 2 1.0 5.0 57 59
- 0.21375 1 2 cbr 210 ------- 2 1.0 5.0 57 59
r 0.21431 1 2 cbr 210 ------- 2 1.0 5.0 53 55
+ 0.21431 2 3 cbr 210 ------- 2 1.0 5.0 53 55
- 0.21431 2 3 cbr 210 ------- 2 1.0 5.0 53 55
r 0.21487 2 3 cbr 210 ------- 2 1.0 5.0 49 51
h 0.21487 3 6 cbr 210 ------- 2 1.0 5.0 49 51
r 0.216124 6 5 cbr 210 ------- 2 1.0 5.0 28 29
+ 0.21737 3 6 cbr 210 ------- 2 1.0 5.0 39 41
- 0.21737 3 6 cbr 210 ------- 2 1.0 5.0 39 41
d 0.217374 4 6 cbr 210 ------- 2 1.0 5.0 39 41
+ 0.2175 1 2 cbr 210 ------- 2 1.0 5.0 58 60
- 0.2175 1 2 cbr 210 ------- 2 1.0 5.0 58 60
r 0.21806 1 2 cbr 210 ------- 2 1.0 5.0 54 56
+ 0.21806 2 3 cbr 210 ------- 2 1.0 5.0 54 56
- 0.21806 2 3 cbr 210 ------- 2 1.0 5.0 54 56
r 0.21862 2 3 cbr 210 ------- 2 1.0 5.0 50 52
h 0.21862 3 6 cbr 210 ------- 2 1.0 5.0 50 52
r 0.219874 6 5 cbr 210 ------- 2 1.0 5.0 29 30
r 0.220435 2 0 ack 40 ------- 0 5.1 0.0 0 31
+ 0.220435 0 2 tcp 1040 ------- 0 0.0 5.1 1 61
- 0.220435 0 2 tcp 1040 ------- 0 0.0 5.1 1 61
+ 0.220435 0 2 tcp 1040 ------- 0 0.0 5.1 2 62
+ 0.22112 3 6 cbr 210 ------- 2 1.0 5.0 40 42
- 0.22112 3 6 cbr 210 ------- 2 1.0 5.0 40 42
d 0.221124 4 6 cbr 210 ------- 2 1.0 5.0 40 42
+ 0.22125 1 2 cbr 210 ------- 2 1.0 5.0 59 63
- 0.22125 1 2 cbr 210 ------- 2 1.0 5.0 59 63
r 0.22181 1 2 cbr 210 ------- 2 1.0 5.0 55 57
+ 0.22181 2 3 cbr 210 ------- 2 1.0 5.0 55 57
- 0.22181 2 3 cbr 210 ------- 2 1.0 5.0 55 57
r 0.22237 2 3 cbr 210 ------- 2 1.0 5.0 51 53
h 0.22237 3 6 cbr 210 ------- 2 1.0 5.0 51 53
- 0.223208 0 2 tcp 1040 ------- 0 0.0 5.1 2 62
r 0.223624 6 5 cbr 210 ------- 2 1.0 5.0 30 32
+ 0.22487 3 6 cbr 210 ------- 2 1.0 5.0 41 43
- 0.22487 3 6 cbr 210 ------- 2 1.0 5.0 41 43
d 0.224874 4 6 cbr 210 ------- 2 1.0 5.0 41 43
+ 0.225 1 2 cbr 210 ------- 2 1.0 5.0 60 64
- 0.225 1 2 cbr 210 ------- 2 1.0 5.0 60 64
r 0.22556 1 2 cbr 210 ------- 2 1.0 5.0 56 58
+ 0.22556 2 3 cbr 210 ------- 2 1.0 5.0 56 58
- 0.22556 2 3 cbr 210 ------- 2 1.0 5.0 56 58
r 0.22612 2 3 cbr 210 ------- 2 1.0 5.0 52 54
h 0.22612 3 6 cbr 210 ------- 2 1.0 5.0 52 54
r 0.227374 6 5 cbr 210 ------- 2 1.0 5.0 31 33
+ 0.22862 3 6 cbr 210 ------- 2 1.0 5.0 42 44
- 0.22862 3 6 cbr 210 ------- 2 1.0 5.0 42 44
d 0.228624 4 6 cbr 210 ------- 2 1.0 5.0 42 44
+ 0.22875 1 2 cbr 210 ------- 2 1.0 5.0 61 65
- 0.22875 1 2 cbr 210 ------- 2 1.0 5.0 61 65
r 0.22931 1 2 cbr 210 ------- 2 1.0 5.0 57 59
+ 0.22931 2 3 cbr 210 ------- 2 1.0 5.0 57 59
- 0.22931 2 3 cbr 210 ------- 2 1.0 5.0 57 59
r 0.22987 2 3 cbr 210 ------- 2 1.0 5.0 53 55
h 0.22987 3 6 cbr 210 ------- 2 1.0 5.0 53 55
r 0.231124 6 5 cbr 210 ------- 2 1.0 5.0 32 34
+ 0.23237 3 6 cbr 210 ------- 2 1.0 5.0 43 45
- 0.23237 3 6 cbr 210 ------- 2 1.0 5.0 43 45
d 0.232374 4 6 cbr 210 ------- 2 1.0 5.0 43 45
+ 0.2325 1 2 cbr 210 ------- 2 1.0 5.0 62 66
- 0.2325 1 2 cbr 210 ------- 2 1.0 5.0 62 66
r 0.23306 1 2 cbr 210 ------- 2 1.0 5.0 58 60
+ 0.23306 2 3 cbr 210 ------- 2 1.0 5.0 58 60
- 0.23306 2 3 cbr 210 ------- 2 1.0 5.0 58 60
r 0.23362 2 3 cbr 210 ------- 2 1.0 5.0 54 56
h 0.23362 3 6 cbr 210 ------- 2 1.0 5.0 54 56
r 0.234874 6 5 cbr 210 ------- 2 1.0 5.0 33 35
+ 0.23612 3 6 cbr 210 ------- 2 1.0 5.0 44 46
- 0.23612 3 6 cbr 210 ------- 2 1.0 5.0 44 46
d 0.236124 4 6 cbr 210 ------- 2 1.0 5.0 44 46
+ 0.23625 1 2 cbr 210 ------- 2 1.0 5.0 63 67
- 0.23625 1 2 cbr 210 ------- 2 1.0 5.0 63 67
r 0.23681 1 2 cbr 210 ------- 2 1.0 5.0 59 63
+ 0.23681 2 3 cbr 210 ------- 2 1.0 5.0 59 63
- 0.23681 2 3 cbr 210 ------- 2 1.0 5.0 59 63
r 0.23737 2 3 cbr 210 ------- 2 1.0 5.0 55 57
h 0.23737 3 6 cbr 210 ------- 2 1.0 5.0 55 57
r 0.238208 0 2 tcp 1040 ------- 0 0.0 5.1 1 61
+ 0.238208 2 3 tcp 1040 ------- 0 0.0 5.1 1 61
- 0.238208 2 3 tcp 1040 ------- 0 0.0 5.1 1 61
r 0.238624 6 5 cbr 210 ------- 2 1.0 5.0 34 36
+ 0.23987 3 6 cbr 210 ------- 2 1.0 5.0 45 47
- 0.23987 3 6 cbr 210 ------- 2 1.0 5.0 45 47
d 0.239874 4 6 cbr 210 ------- 2 1.0 5.0 45 47
+ 0.24 1 2 cbr 210 ------- 2 1.0 5.0 64 68
- 0.24 1 2 cbr 210 ------- 2 1.0 5.0 64 68
r 0.24056 1 2 cbr 210 ------- 2 1.0 5.0 60 64
+ 0.24056 2 3 cbr 210 ------- 2 1.0 5.0 60 64
r 0.240981 0 2 tcp 1040 ------- 0 0.0 5.1 2 62
+ 0.240981 2 3 tcp 1040 ------- 0 0.0 5.1 2 62
- 0.240981 2 3 cbr 210 ------- 2 1.0 5.0 60 64
r 0.24112 2 3 cbr 210 ------- 2 1.0 5.0 56 58
h 0.24112 3 6 cbr 210 ------- 2 1.0 5.0 56 58
- 0.241541 2 3 tcp 1040 ------- 0 0.0 5.1 2 62
r 0.242374 6 5 cbr 210 ------- 2 1.0 5.0 35 37
+ 0.24362 3 6 cbr 210 ------- 2 1.0 5.0 46 48
- 0.24362 3 6 cbr 210 ------- 2 1.0 5.0 46 48
d 0.243624 4 6 cbr 210 ------- 2 1.0 5.0 46 48
+ 0.24375 1 2 cbr 210 ------- 2 1.0 5.0 65 69
- 0.24375 1 2 cbr 210 ------- 2 1.0 5.0 65 69
r 0.24431 1 2 cbr 210 ------- 2 1.0 5.0 61 65
+ 0.24431 2 3 cbr 210 ------- 2 1.0 5.0 61 65
- 0.244315 2 3 cbr 210 ------- 2 1.0 5.0 61 65
r 0.24487 2 3 cbr 210 ------- 2 1.0 5.0 57 59
h 0.24487 3 6 cbr 210 ------- 2 1.0 5.0 57 59
r 0.246124 6 5 cbr 210 ------- 2 1.0 5.0 36 38
+ 0.24737 3 6 cbr 210 ------- 2 1.0 5.0 47 49
- 0.24737 3 6 cbr 210 ------- 2 1.0 5.0 47 49
d 0.247374 4 6 cbr 210 ------- 2 1.0 5.0 47 49
+ 0.2475 1 2 cbr 210 ------- 2 1.0 5.0 66 70
- 0.2475 1 2 cbr 210 ------- 2 1.0 5.0 66 70
r 0.24806 1 2 cbr 210 ------- 2 1.0 5.0 62 66
+ 0.24806 2 3 cbr 210 ------- 2 1.0 5.0 62 66
- 0.24806 2 3 cbr 210 ------- 2 1.0 5.0 62 66
r 0.24862 2 3 cbr 210 ------- 2 1.0 5.0 58 60
h 0.24862 3 6 cbr 210 ------- 2 1.0 5.0 58 60
r 0.249874 6 5 cbr 210 ------- 2 1.0 5.0 37 39
+ 0.25112 3 6 cbr 210 ------- 2 1.0 5.0 48 50
- 0.25112 3 6 cbr 210 ------- 2 1.0 5.0 48 50
d 0.251124 4 6 cbr 210 ------- 2 1.0 5.0 48 50