V -t * -v 1.0a5 -a 0
A -t * -n 1 -p 0 -o 0x7fffffff -c 30 -a 1
A -t * -h 1 -m 1073741823 -s 0
c -t * -i 0 -n blue
c -t * -i 2 -n red
n -t * -a 4 -s 4 -S UP -v circle -c black -i black
n -t * -a 0 -s 0 -S UP -v circle -c black -i black
n -t * -a 5 -s 5 -S UP -v circle -c black -i black
n -t * -a 1 -s 1 -S UP -v circle -c black -i black
n -t * -a 2 -s 2 -S UP -v circle -c black -i black
n -t * -a 3 -s 3 -S UP -v circle -c black -i black
l -t * -s 0 -d 2 -S UP -r 3000000 -D 0.014999999999999999 -c black -o right-down
l -t * -s 1 -d 2 -S UP -r 3000000 -D 0.014999999999999999 -c black -o right-up
l -t * -s 2 -d 3 -S UP -r 3000000 -D 0.014999999999999999 -c black -o right
X -t * -n 6 -r 0.5Mb -D 40ms -o left
L -t * -s 6 -d 3 -o up
L -t * -s 6 -d 4 -o down
L -t * -s 6 -d 5 -o up
+ -t 0 -s 1 -d 2 -p cbr -e 210 -c 2 -i 0 -a 2 -x {1.0 5.0 0 ------- null}
- -t 0 -s 1 -d 2 -p cbr -e 210 -c 2 -i 0 -a 2 -x {1.0 5.0 0 ------- null}
h -t 0 -s 1 -d 2 -p cbr -e 210 -c 2 -i 0 -a 2 -x {1.0 5.0 -1 ------- null}
+ -t 0 -s 0 -d 2 -p tcp -e 40 -c 0 -i 1 -a 0 -x {0.0 5.1 0 ------- null}
- -t 0 -s 0 -d 2 -p tcp -e 40 -c 0 -i 1 -a 0 -x {0.0 5.1 0 ------- null}
h -t 0 -s 0 -d 2 -p tcp -e 40 -c 0 -i 1 -a 0 -x {0.0 5.1 -1 ------- null}
+ -t 0.00375 -s 1 -d 2 -p cbr -e 210 -c 2 -i 2 -a 2 -x {1.0 5.0 1 ------- null}
- -t 0.00375 -s 1 -d 2 -p cbr -e 210 -c 2 -i 2 -a 2 -x {1.0 5.0 1 ------- null}
h -t 0.00375 -s 1 -d 2 -p cbr -e 210 -c 2 -i 2 -a 2 -x {1.0 5.0 -1 ------- null}
+ -t 0.0075 -s 1 -d 2 -p cbr -e 210 -c 2 -i 3 -a 2 -x {1.0 5.0 2 ------- null}
- -t 0.0075 -s 1 -d 2 -p cbr -e 210 -c 2 -i 3 -a 2 -x {1.0 5.0 2 ------- null}
h -t 0.0075 -s 1 -d 2 -p cbr -e 210 -c 2 -i 3 -a 2 -x {1.0 5.0 -1 ------- null}
+ -t 0.01125 -s 1 -d 2 -p cbr -e 210 -c 2 -i 4 -a 2 -x {1.0 5.0 3 ------- null}
- -t 0.01125 -s 1 -d 2 -p cbr -e 210 -c 2 -i 4 -a 2 -x {1.0 5.0 3 ------- null}
h -t 0.01125 -s 1 -d 2 -p cbr -e 210 -c 2 -i 4 -a 2 -x {1.0 5.0 -1 ------- null}
+ -t 0.015 -s 1 -d 2 -p cbr -e 210 -c 2 -i 5 -a 2 -x {1.0 5.0 4 ------- null}
- -t 0.015 -s 1 -d 2 -p cbr -e 210 -c 2 -i 5 -a 2 -x {1.0 5.0 4 ------- null}
h -t 0.015 -s 1 -d 2 -p cbr -e 210 -c 2 -i 5 -a 2 -x {1.0 5.0 -1 ------- null}
r -t 0.0151066666666667 -s 0 -d 2 -p tcp -e 40 -c 0 -i 1 -a 0 -x {0.0 5.1 0 ------- null}
+ -t 0.0151066666666667 -s 2 -d 3 -p tcp -e 40 -c 0 -i 1 -a 0 -x {0.0 5.1 0 ------- null}
- -t 0.0151066666666667 -s 2 -d 3 -p tcp -e 40 -c 0 -i 1 -a 0 -x {0.0 5.1 0 ------- null}
h -t 0.0151066666666667 -s 2 -d 3 -p tcp -e 40 -c 0 -i 1 -a 0 -x {0.0 5.1 -1 ------- null}
r -t 0.01556 -s 1 -d 2 -p cbr -e 210 -c 2 -i 0 -a 2 -x {1.0 5.0 0 ------- null}
+ -t 0.01556 -s 2 -d 3 -p cbr -e 210 -c 2 -i 0 -a 2 -x {1.0 5.0 0 ------- null}
- -t 0.01556 -s 2 -d 3 -p cbr -e 210 -c 2 -i 0 -a 2 -x {1.0 5.0 0 ------- null}
h -t 0.01556 -s 2 -d 3 -p cbr -e 210 -c 2 -i 0 -a 2 -x {1.0 5.0 -1 ------- null}
+ -t 0.01875 -s 1 -d 2 -p cbr -e 210 -c 2 -i 6 -a 2 -x {1.0 5.0 5 ------- null}
- -t 0.01875 -s 1 -d 2 -p cbr -e 210 -c 2 -i 6 -a 2 -x {1.0 5.0 5 ------- null}
h -t 0.01875 -s 1 -d 2 -p cbr -e 210 -c 2 -i 6 -a 2 -x {1.0 5.0 -1 ------- null}
r -t 0.01931 -s 1 -d 2 -p cbr -e 210 -c 2 -i 2 -a 2 -x {1.0 5.0 1 ------- null}
+ -t 0.01931 -s 2 -d 3 -p cbr -e 210 -c 2 -i 2 -a 2 -x {1.0 5.0 1 ------- null}
- -t 0.01931 -s 2 -d 3 -p cbr -e 210 -c 2 -i 2 -a 2 -x {1.0 5.0 1 ------- null}
h -t 0.01931 -s 2 -d 3 -p cbr -e 210 -c 2 -i 2 -a 2 -x {1.0 5.0 -1 ------- null}
+ -t 0.0225 -s 1 -d 2 -p cbr -e 210 -c 2 -i 7 -a 2 -x {1.0 5.0 6 ------- null}
- -t 0.0225 -s 1 -d 2 -p cbr -e 210 -c 2 -i 7 -a 2 -x {1.0 5.0 6 ------- null}
h -t 0.0225 -s 1 -d 2 -p cbr -e 210 -c 2 -i 7 -a 2 -x {1.0 5.0 -1 ------- null}
r -t 0.02306 -s 1 -d 2 -p cbr -e 210 -c 2 -i 3 -a 2 -x {1.0 5.0 2 ------- null}
+ -t 0.02306 -s 2 -d 3 -p cbr -e 210 -c 2 -i 3 -a 2 -x {1.0 5.0 2 ------- null}
- -t 0.02306 -s 2 -d 3 -p cbr -e 210 -c 2 -i 3 -a 2 -x {1.0 5.0 2 ------- null}
h -t 0.02306 -s 2 -d 3 -p cbr -e 210 -c 2 -i 3 -a 2 -x {1.0 5.0 -1 ------- null}
+ -t 0.02625 -s 1 -d 2 -p cbr -e 210 -c 2 -i 8 -a 2 -x {1.0 5.0 7 ------- null}
- -t 0.02625 -s 1 -d 2 -p cbr -e 210 -c 2 -i 8 -a 2 -x {1.0 5.0 7 ------- null}
h -t 0.02625 -s 1 -d 2 -p cbr -e 210 -c 2 -i 8 -a 2 -x {1.0 5.0 -1 ------- null}
r -t 0.02681 -s 1 -d 2 -p cbr -e 210 -c 2 -i 4 -a 2 -x {1.0 5.0 3 ------- null}
+ -t 0.02681 -s 2 -d 3 -p cbr -e 210 -c 2 -i 4 -a 2 -x {1.0 5.0 3 ------- null}
- -t 0.02681 -s 2 -d 3 -p cbr -e 210 -c 2 -i 4 -a 2 -x {1.0 5.0 3 ------- null}
h -t 0.02681 -s 2 -d 3 -p cbr -e 210 -c 2 -i 4 -a 2 -x {1.0 5.0 -1 ------- null}
+ -t 0.03 -s 1 -d 2 -p cbr -e 210 -c 2 -i 9 -a 2 -x {1.0 5.0 8 ------- null}
- -t 0.03 -s 1 -d 2 -p cbr -e 210 -c 2 -i 9 -a 2 -x {1.0 5.0 8 ------- null}
h -t 0.03 -s 1 -d 2 -p cbr -e 210 -c 2 -i 9 -a 2 -x {1.0 5.0 -1 ------- null}
r -t 0.0302133333333333 -s 2 -d 3 -p tcp -e 40 -c 0 -i 1 -a 0 -x {0.0 5.1 0 ------- null}
h -t 0.0302133333333333 -s 3 -d 6 -p tcp -e 40 -c 0 -i 1 -a 0 -x {0.0 5.1 0 ------- null}
r -t 0.03056 -s 1 -d 2 -p cbr -e 210 -c 2 -i 5 -a 2 -x {1.0 5.0 4 ------- null}
+ -t 0.03056 -s 2 -d 3 -p cbr -e 210 -c 2 -i 5 -a 2 -x {1.0 5.0 4 ------- null}
- -t 0.03056 -s 2 -d 3 -p cbr -e 210 -c 2 -i 5 -a 2 -x {1.0 5.0 4 ------- null}
h -t 0.03056 -s 2 -d 3 -p cbr -e 210 -c 2 -i 5 -a 2 -x {1.0 5.0 -1 ------- null}
r -t 0.03112 -s 2 -d 3 -p cbr -e 210 -c 2 -i 0 -a 2 -x {1.0 5.0 0 ------- null}
h -t 0.03112 -s 3 -d 6 -p cbr -e 210 -c 2 -i 0 -a 2 -x {1.0 5.0 0 ------- null}
+ -t 0.03375 -s 1 -d 2 -p cbr -e 210 -c 2 -i 10 -a 2 -x {1.0 5.0 9 ------- null}
- -t 0.03375 -s 1 -d 2 -p cbr -e 210 -c 2 -i 10 -a 2 -x {1.0 5.0 9 ------- null}
h -t 0.03375 -s 1 -d 2 -p cbr -e 210 -c 2 -i 10 -a 2 -x {1.0 5.0 -1 ------- null}
r -t 0.03431 -s 1 -d 2 -p cbr -e 210 -c 2 -i 6 -a 2 -x {1.0 5.0 5 ------- null}
+ -t 0.03431 -s 2 -d 3 -p cbr -e 210 -c 2 -i 6 -a 2 -x {1.0 5.0 5 ------- null}
- -t 0.03431 -s 2 -d 3 -p cbr -e 210 -c 2 -i 6 -a 2 -x {1.0 5.0 5 ------- null}
h -t 0.03431 -s 2 -d 3 -p cbr -e 210 -c 2 -i 6 -a 2 -x {1.0 5.0 -1 ------- null}
r -t 0.03487 -s 2 -d 3 -p cbr -e 210 -c 2 -i 2 -a 2 -x {1.0 5.0 1 ------- null}
h -t 0.03487 -s 3 -d 6 -p cbr -e 210 -c 2 -i 2 -a 2 -x {1.0 5.0 1 ------- null}
+ -t 0.0375 -s 1 -d 2 -p cbr -e 210 -c 2 -i 11 -a 2 -x {1.0 5.0 10 ------- null}
- -t 0.0375 -s 1 -d 2 -p cbr -e 210 -c 2 -i 11 -a 2 -x {1.0 5.0 10 ------- null}
h -t 0.0375 -s 1 -d 2 -p cbr -e 210 -c 2 -i 11 -a 2 -x {1.0 5.0 -1 ------- null}
r -t 0.03806 -s 1 -d 2 -p cbr -e 210 -c 2 -i 7 -a 2 -x {1.0 5.0 6 ------- null}
+ -t 0.03806 -s 2 -d 3 -p cbr -e 210 -c 2 -i 7 -a 2 -x {1.0 5.0 6 ------- null}
- -t 0.03806 -s 2 -d 3 -p cbr -e 210 -c 2 -i 7 -a 2 -x {1.0 5.0 6 ------- null}
h -t 0.03806 -s 2 -d 3 -p cbr -e 210 -c 2 -i 7 -a 2 -x {1.0 5.0 -1 ------- null}
r -t 0.03862 -s 2 -d 3 -p cbr -e 210 -c 2 -i 3 -a 2 -x {1.0 5.0 2 ------- null}
h -t 0.03862 -s 3 -d 6 -p cbr -e 210 -c 2 -i 3 -a 2 -x {1.0 5.0 2 ------- null}
+ -t 0.04125 -s 1 -d 2 -p cbr -e 210 -c 2 -i 12 -a 2 -x {1.0 5.0 11 ------- null}
- -t 0.04125 -s 1 -d 2 -p cbr -e 210 -c 2 -i 12 -a 2 -x {1.0 5.0 11 ------- null}
h -t 0.04125 -s 1 -d 2 -p cbr -e 210 -c 2 -i 12 -a 2 -x {1.0 5.0 -1 ------- null}
r -t 0.04181 -s 1 -d 2 -p cbr -e 210 -c 2 -i 8 -a 2 -x {1.0 5.0 7 ------- null}
+ -t 0.04181 -s 2 -d 3 -p cbr -e 210 -c 2 -i 8 -a 2 -x {1.0 5.0 7 ------- null}
- -t 0.04181 -s 2 -d 3 -p cbr -e 210 -c 2 -i 8 -a 2 -x {1.0 5.0 7 ------- null}
h -t 0.04181 -s 2 -d 3 -p cbr -e 210 -c 2 -i 8 -a 2 -x {1.0 5.0 -1 ------- null}
r -t 0.04237 -s 2 -d 3 -p cbr -e 210 -c 2 -i 4 -a 2 -x {1.0 5.0 3 ------- null}
h -t 0.04237 -s 3 -d 6 -p cbr -e 210 -c 2 -i 4 -a 2 -x {1.0 5.0 3 ------- null}
+ -t 0.045 -s 1 -d 2 -p cbr -e 210 -c 2 -i 13 -a 2 -x {1.0 5.0 12 ------- null}
- -t 0.045 -s 1 -d 2 -p cbr -e 210 -c 2 -i 13 -a 2 -x {1.0 5.0 12 ------- null}
h -t 0.045 -s 1 -d 2 -p cbr -e 210 -c 2 -i 13 -a 2 -x {1.0 5.0 -1 ------- null}
r -t 0.04556 -s 1 -d 2 -p cbr -e 210 -c 2 -i 9 -a 2 -x {1.0 5.0 8 ------- null}
+ -t 0.04556 -s 2 -d 3 -p cbr -e 210 -c 2 -i 9 -a 2 -x {1.0 5.0 8 ------- null}
- -t 0.04556 -s 2 -d 3 -p cbr -e 210 -c 2 -i 9 -a 2 -x {1.0 5.0 8 ------- null}
h -t 0.04556 -s 2 -d 3 -p cbr -e 210 -c 2 -i 9 -a 2 -x {1.0 5.0 -1 ------- null}
r -t 0.04612 -s 2 -d 3 -p cbr -e 210 -c 2 -i 5 -a 2 -x {1.0 5.0 4 ------- null}
h -t 0.04612 -s 3 -d 6 -p cbr -e 210 -c 2 -i 5 -a 2 -x {1.0 5.0 4 ------- null}
+ -t 0.04875 -s 1 -d 2 -p cbr -e 210 -c 2 -i 14 -a 2 -x {1.0 5.0 13 ------- null}
- -t 0.04875 -s 1 -d 2 -p cbr -e 210 -c 2 -i 14 -a 2 -x {1.0 5.0 13 ------- null}
h -t 0.04875 -s 1 -d 2 -p cbr -e 210 -c 2 -i 14 -a 2 -x {1.0 5.0 -1 ------- null}
r -t 0.04931 -s 1 -d 2 -p cbr -e 210 -c 2 -i 10 -a 2 -x {1.0 5.0 9 ------- null}
+ -t 0.04931 -s 2 -d 3 -p cbr -e 210 -c 2 -i 10 -a 2 -x {1.0 5.0 9 ------- null}
- -t 0.04931 -s 2 -d 3 -p cbr -e 210 -c 2 -i 10 -a 2 -x {1.0 5.0 9 ------- null}
h -t 0.04931 -s 2 -d 3 -p cbr -e 210 -c 2 -i 10 -a 2 -x {1.0 5.0 -1 ------- null}
r -t 0.04987 -s 2 -d 3 -p cbr -e 210 -c 2 -i 6 -a 2 -x {1.0 5.0 5 ------- null}
h -t 0.04987 -s 3 -d 6 -p cbr -e 210 -c 2 -i 6 -a 2 -x {1.0 5.0 5 ------- null}
+ -t 0.0525 -s 1 -d 2 -p cbr -e 210 -c 2 -i 15 -a 2 -x {1.0 5.0 14 ------- null}
- -t 0.0525 -s 1 -d 2 -p cbr -e 210 -c 2 -i 15 -a 2 -x {1.0 5.0 14 ------- null}
h -t 0.0525 -s 1 -d 2 -p cbr -e 210 -c 2 -i 15 -a 2 -x {1.0 5.0 -1 ------- null}
r -t 0.05306 -s 1 -d 2 -p cbr -e 210 -c 2 -i 11 -a 2 -x {1.0 5.0 10 ------- null}
+ -t 0.05306 -s 2 -d 3 -p cbr -e 210 -c 2 -i 11 -a 2 -x {1.0 5.0 10 ------- null}
- -t 0.05306 -s 2 -d 3 -p cbr -e 210 -c 2 -i 11 -a 2 -x {1.0 5.0 10 ------- null}
h -t 0.05306 -s 2 -d 3 -p cbr -e 210 -c 2 -i 11 -a 2 -x {1.0 5.0 -1 ------- null}
r -t 0.05362 -s 2 -d 3 -p cbr -e 210 -c 2 -i 7 -a 2 -x {1.0 5.0 6 ------- null}
h -t 0.05362 -s 3 -d 6 -p cbr -e 210 -c 2 -i 7 -a 2 -x {1.0 5.0 6 ------- null}
+ -t 0.05625 -s 1 -d 2 -p cbr -e 210 -c 2 -i 16 -a 2 -x {1.0 5.0 15 ------- null}
- -t 0.05625 -s 1 -d 2 -p cbr -e 210 -c 2 -i 16 -a 2 -x {1.0 5.0 15 ------- null}
h -t 0.05625 -s 1 -d 2 -p cbr -e 210 -c 2 -i 16 -a 2 -x {1.0 5.0 -1 ------- null}
r -t 0.05681 -s 1 -d 2 -p cbr -e 210 -c 2 -i 12 -a 2 -x {1.0 5.0 11 ------- null}
+ -t 0.05681 -s 2 -d 3 -p cbr -e 210 -c 2 -i 12 -a 2 -x {1.0 5.0 11 ------- null}
- -t 0.05681 -s 2 -d 3 -p cbr -e 210 -c 2 -i 12 -a 2 -x {1.0 5.0 11 ------- null}
h -t 0.05681 -s 2 -d 3 -p cbr -e 210 -c 2 -i 12 -a 2 -x {1.0 5.0 -1 ------- null}
r -t 0.05737 -s 2 -d 3 -p cbr -e 210 -c 2 -i 8 -a 2 -x {1.0 5.0 7 ------- null}
h -t 0.05737 -s 3 -d 6 -p cbr -e 210 -c 2 -i 8 -a 2 -x {1.0 5.0 7 ------- null}
+ -t 0.06 -s 1 -d 2 -p cbr -e 210 -c 2 -i 17 -a 2 -x {1.0 5.0 16 ------- null}
- -t 0.06 -s 1 -d 2 -p cbr -e 210 -c 2 -i 17 -a 2 -x {1.0 5.0 16 ------- null}
h -t 0.06 -s 1 -d 2 -p cbr -e 210 -c 2 -i 17 -a 2 -x {1.0 5.0 -1 ------- null}
r -t 0.06056 -s 1 -d 2 -p cbr -e 210 -c 2 -i 13 -a 2 -x {1.0 5.0 12 ------- null}
+ -t 0.06056 -s 2 -d 3 -p cbr -e 210 -c 2 -i 13 -a 2 -x {1.0 5.0 12 ------- null}
- -t 0.06056 -s 2 -d 3 -p cbr -e 210 -c 2 -i 13 -a 2 -x {1.0 5.0 12 ------- null}
h -t 0.06056 -s 2 -d 3 -p cbr -e 210 -c 2 -i 13 -a 2 -x {1.0 5.0 -1 ------- null}
r -t 0.06112 -s 2 -d 3 -p cbr -e 210 -c 2 -i 9 -a 2 -x {1.0 5.0 8 ------- null}
h -t 0.06112 -s 3 -d 6 -p cbr -e 210 -c 2 -i 9 -a 2 -x {1.0 5.0 8 ------- null}
+ -t 0.06375 -s 1 -d 2 -p cbr -e 210 -c 2 -i 18 -a 2 -x {1.0 5.0 17 ------- null}
- -t 0.06375 -s 1 -d 2 -p cbr -e 210 -c 2 -i 18 -a 2 -x {1.0 5.0 17 ------- null}
h -t 0.06375 -s 1 -d 2 -p cbr -e 210 -c 2 -i 18 -a 2 -x {1.0 5.0 -1 ------- null}
r -t 0.06431 -s 1 -d 2 -p cbr -e 210 -c 2 -i 14 -a 2 -x {1.0 5.0 13 ------- null}
+ -t 0.06431 -s 2 -d 3 -p cbr -e 210 -c 2 -i 14 -a 2 -x {1.0 5.0 13 ------- null}
- -t 0.06431 -s 2 -d 3 -p cbr -e 210 -c 2 -i 14 -a 2 -x {1.0 5.0 13 ------- null}
h -t 0.06431 -s 2 -d 3 -p cbr -e 210 -c 2 -i 14 -a 2 -x {1.0 5.0 -1 ------- null}
r -t 0.06487 -s 2 -d 3 -p cbr -e 210 -c 2 -i 10 -a 2 -x {1.0 5.0 9 ------- null}
h -t 0.06487 -s 3 -d 6 -p cbr -e 210 -c 2 -i 10 -a 2 -x {1.0 5.0 9 ------- null}
+ -t 0.0675 -s 1 -d 2 -p cbr -e 210 -c 2 -i 19 -a 2 -x {1.0 5.0 18 ------- null}
- -t 0.0675 -s 1 -d 2 -p cbr -e 210 -c 2 -i 19 -a 2 -x {1.0 5.0 18 ------- null}
h -t 0.0675 -s 1 -d 2 -p cbr -e 210 -c 2 -i 19 -a 2 -x {1.0 5.0 -1 ------- null}
r -t 0.06806 -s 1 -d 2 -p cbr -e 210 -c 2 -i 15 -a 2 -x {1.0 5.0 14 ------- null}
+ -t 0.06806 -s 2 -d 3 -p cbr -e 210 -c 2 -i 15 -a 2 -x {1.0 5.0 14 ------- null}
- -t 0.06806 -s 2 -d 3 -p cbr -e 210 -c 2 -i 15 -a 2 -x {1.0 5.0 14 ------- null}
h -t 0.06806 -s 2 -d 3 -p cbr -e 210 -c 2 -i 15 -a 2 -x {1.0 5.0 -1 ------- null}
r -t 0.06862 -s 2 -d 3 -p cbr -e 210 -c 2 -i 11 -a 2 -x {1.0 5.0 10 ------- null}
h -t 0.06862 -s 3 -d 6 -p cbr -e 210 -c 2 -i 11 -a 2 -x {1.0 5.0 10 ------- null}
+ -t 0.0702133333333333 -s 3 -d 6 -p tcp -e 40 -c 0 -i 1 -a 0 -x {0.0 5.1 0 ------- null}
- -t 0.0702133333333333 -s 3 -d 6 -p tcp -e 40 -c 0 -i 1 -a 0 -x {0.0 5.1 0 ------- null}
h -t 0.0702133333333333 -s 3 -d 6 -p tcp -e 40 -c 0 -i 1 -a 0 -x {0.0 5.1 -1 ------- null}
d -t 0.0702173333333333 -s 4 -d 6 -p tcp -e 40 -c 0 -i 1 -a 0 -x {0.0 5.1 0 ------- null}
+ -t 0.07112 -s 3 -d 6 -p cbr -e 210 -c 2 -i 0 -a 2 -x {1.0 5.0 0 ------- null}
- -t 0.07112 -s 3 -d 6 -p cbr -e 210 -c 2 -i 0 -a 2 -x {1.0 5.0 0 ------- null}
h -t 0.07112 -s 3 -d 6 -p cbr -e 210 -c 2 -i 0 -a 2 -x {1.0 5.0 -1 ------- null}
d -t 0.071124 -s 4 -d 6 -p cbr -e 210 -c 2 -i 0 -a 2 -x {1.0 5.0 0 ------- null}
+ -t 0.07125 -s 1 -d 2 -p cbr -e 210 -c 2 -i 20 -a 2 -x {1.0 5.0 19 ------- null}
- -t 0.07125 -s 1 -d 2 -p cbr -e 210 -c 2 -i 20 -a 2 -x {1.0 5.0 19 ------- null}
h -t 0.07125 -s 1 -d 2 -p cbr -e 210 -c 2 -i 20 -a 2 -x {1.0 5.0 -1 ------- null}
r -t 0.07181 -s 1 -d 2 -p cbr -e 210 -c 2 -i 16 -a 2 -x {1.0 5.0 15 ------- null}
+ -t 0.07181 -s 2 -d 3 -p cbr -e 210 -c 2 -i 16 -a 2 -x {1.0 5.0 15 ------- null}
- -t 0.07181 -s 2 -d 3 -p cbr -e 210 -c 2 -i 16 -a 2 -x {1.0 5.0 15 ------- null}
h -t 0.07181 -s 2 -d 3 -p cbr -e 210 -c 2 -i 16 -a 2 -x {1.0 5.0 -1 ------- null}
r -t 0.07237 -s 2 -d 3 -p cbr -e 210 -c 2 -i 12 -a 2 -x {1.0 5.0 11 ------- null}
h -t 0.07237 -s 3 -d 6 -p cbr -e 210 -c 2 -i 12 -a 2 -x {1.0 5.0 11 ------- null}
+ -t 0.07487 -s 3 -d 6 -p cbr -e 210 -c 2 -i 2 -a 2 -x {1.0 5.0 1 ------- null}
- -t 0.07487 -s 3 -d 6 -p cbr -e 210 -c 2 -i 2 -a 2 -x {1.0 5.0 1 ------- null}
h -t 0.07487 -s 3 -d 6 -p cbr -e 210 -c 2 -i 2 -a 2 -x {1.0 5.0 -1 ------- null}
d -t 0.074874 -s 4 -d 6 -p cbr -e 210 -c 2 -i 2 -a 2 -x {1.0 5.0 1 ------- null}
+ -t 0.075 -s 1 -d 2 -p cbr -e 210 -c 2 -i 21 -a 2 -x {1.0 5.0 20 ------- null}
- -t 0.075 -s 1 -d 2 -p cbr -e 210 -c 2 -i 21 -a 2 -x {1.0 5.0 20 ------- null}
h -t 0.075 -s 1 -d 2 -p cbr -e 210 -c 2 -i 21 -a 2 -x {1.0 5.0 -1 ------- null}
r -t 0.07556 -s 1 -d 2 -p cbr -e 210 -c 2 -i 17 -a 2 -x {1.0 5.0 16 ------- null}
+ -t 0.07556 -s 2 -d 3 -p cbr -e 210 -c 2 -i 17 -a 2 -x {1.0 5.0 16 ------- null}
- -t 0.07556 -s 2 -d 3 -p cbr -e 210 -c 2 -i 17 -a 2 -x {1.0 5.0 16 ------- null}
h -t 0.07556 -s 2 -d 3 -p cbr -e 210 -c 2 -i 17 -a 2 -x {1.0 5.0 -1 ------- null}
r -t 0.07612 -s 2 -d 3 -p cbr -e 210 -c 2 -i 13 -a 2 -x {1.0 5.0 12 ------- null}
h -t 0.07612 -s 3 -d 6 -p cbr -e 210 -c 2 -i 13 -a 2 -x {1.0 5.0 12 ------- null}
+ -t 0.07862 -s 3 -d 6 -p cbr -e 210 -c 2 -i 3 -a 2 -x {1.0 5.0 2 ------- null}
- -t 0.07862 -s 3 -d 6 -p cbr -e 210 -c 2 -i 3 -a 2 -x {1.0 5.0 2 ------- null}
h -t 0.07862 -s 3 -d 6 -p cbr -e 210 -c 2 -i 3 -a 2 -x {1.0 5.0 -1 ------- null}
d -t 0.078624 -s 4 -d 6 -p cbr -e 210 -c 2 -i 3 -a 2 -x {1.0 5.0 2 ------- null}
+ -t 0.07875 -s 1 -d 2 -p cbr -e 210 -c 2 -i 22 -a 2 -x {1.0 5.0 21 ------- null}
- -t 0.07875 -s 1 -d 2 -p cbr -e 210 -c 2 -i 22 -a 2 -x {1.0 5.0 21 ------- null}
h -t 0.07875 -s 1 -d 2 -p cbr -e 210 -c 2 -i 22 -a 2 -x {1.0 5.0 -1 ------- null}
r -t 0.07931 -s 1 -d 2 -p cbr -e 210 -c 2 -i 18 -a 2 -x {1.0 5.0 17 ------- null}
+ -t 0.07931 -s 2 -d 3 -p cbr -e 210 -c 2 -i 18 -a 2 -x {1.0 5.0 17 ------- null}
- -t 0.07931 -s 2 -d 3 -p cbr -e 210 -c 2 -i 18 -a 2 -x {1.0 5.0 17 ------- null}
h -t 0.07931 -s 2 -d 3 -p cbr -e 210 -c 2 -i 18 -a 2 -x {1.0 5.0 -1 ------- null}
r -t 0.07987 -s 2 -d 3 -p cbr -e 210 -c 2 -i 14 -a 2 -x {1.0 5.0 13 ------- null}
h -t 0.07987 -s 3 -d 6 -p cbr -e 210 -c 2 -i 14 -a 2 -x {1.0 5.0 13 ------- null}
+ -t 0.08237 -s 3 -d 6 -p cbr -e 210 -c 2 -i 4 -a 2 -x {1.0 5.0 3 ------- null}
- -t 0.08237 -s 3 -d 6 -p cbr -e 210 -c 2 -i 4 -a 2 -x {1.0 5.0 3 ------- null}
h -t 0.08237 -s 3 -d 6 -p cbr -e 210 -c 2 -i 4 -a 2 -x {1.0 5.0 -1 ------- null}
d -t 0.082374 -s 4 -d 6 -p cbr -e 210 -c 2 -i 4 -a 2 -x {1.0 5.0 3 ------- null}
+ -t 0.0825 -s 1 -d 2 -p cbr -e 210 -c 2 -i 23 -a 2 -x {1.0 5.0 22 ------- null}
- -t 0.0825 -s 1 -d 2 -p cbr -e 210 -c 2 -i 23 -a 2 -x {1.0 5.0 22 ------- null}
h -t 0.0825 -s 1 -d 2 -p cbr -e 210 -c 2 -i 23 -a 2 -x {1.0 5.0 -1 ------- null}
r -t 0.08306 -s 1 -d 2 -p cbr -e 210 -c 2 -i 19 -a 2 -x {1.0 5.0 18 ------- null}
+ -t 0.08306 -s 2 -d 3 -p cbr -e 210 -c 2 -i 19 -a 2 -x {1.0 5.0 18 ------- null}
- -t 0.08306 -s 2 -d 3 -p cbr -e 210 -c 2 -i 19 -a 2 -x {1.0 5.0 18 ------- null}
h -t 0.08306 -s 2 -d 3 -p cbr -e 210 -c 2 -i 19 -a 2 -x {1.0 5.0 -1 ------- null}
r -t 0.08362 -s 2 -d 3 -p cbr -e 210 -c 2 -i 15 -a 2 -x {1.0 5.0 14 ------- null}
h -t 0.08362 -s 3 -d 6 -p cbr -e 210 -c 2 -i 15 -a 2 -x {1.0 5.0 14 ------- null}
+ -t 0.08612 -s 3 -d 6 -p cbr -e 210 -c 2 -i 5 -a 2 -x {1.0 5.0 4 ------- null}
- -t 0.08612 -s 3 -d 6 -p cbr -e 210 -c 2 -i 5 -a 2 -x {1.0 5.0 4 ------- null}
h -t 0.08612 -s 3 -d 6 -p cbr -e 210 -c 2 -i 5 -a 2 -x {1.0 5.0 -1 ------- null}
d -t 0.086124 -s 4 -d 6 -p cbr -e 210 -c 2 -i 5 -a 2 -x {1.0 5.0 4 ------- null}
+ -t 0.08625 -s 1 -d 2 -p cbr -e 210 -c 2 -i 24 -a 2 -x {1.0 5.0 23 ------- null}
- -t 0.08625 -s 1 -d 2 -p cbr -e 210 -c 2 -i 24 -a 2 -x {1.0 5.0 23 ------- null}
h -t 0.08625 -s 1 -d 2 -p cbr -e 210 -c 2 -i 24 -a 2 -x {1.0 5.0 -1 ------- null}
r -t 0.08681 -s 1 -d 2 -p cbr -e 210 -c 2 -i 20 -a 2 -x {1.0 5.0 19 ------- null}
+ -t 0.08681 -s 2 -d 3 -p cbr -e 210 -c 2 -i 20 -a 2 -x {1.0 5.0 19 ------- null}
- -t 0.08681 -s 2 -d 3 -p cbr -e 210 -c 2 -i 20 -a 2 -x {1.0 5.0 19 ------- null}
h -t 0.08681 -s 2 -d 3 -p cbr -e 210 -c 2 -i 20 -a 2 -x {1.0 5.0 -1 ------- null}
r -t 0.08737 -s 2 -d 3 -p cbr -e 210 -c 2 -i 16 -a 2 -x {1.0 5.0 15 ------- null}
h -t 0.08737 -s 3 -d 6 -p cbr -e 210 -c 2 -i 16 -a 2 -x {1.0 5.0 15 ------- null}
+ -t 0.08987 -s 3 -d 6 -p cbr -e 210 -c 2 -i 6 -a 2 -x {1.0 5.0 5 ------- null}
- -t 0.08987 -s 3 -d 6 -p cbr -e 210 -c 2 -i 6 -a 2 -x {1.0 5.0 5 ------- null}
h -t 0.08987 -s 3 -d 6 -p cbr -e 210 -c 2 -i 6 -a 2 -x {1.0 5.0 -1 ------- null}
d -t 0.089874 -s 4 -d 6 -p cbr -e 210 -c 2 -i 6 -a 2 -x {1.0 5.0 5 ------- null}
+ -t 0.0900000000000001 -s 1 -d 2 -p cbr -e 210 -c 2 -i 25 -a 2 -x {1.0 5.0 24 ------- null}
- -t 0.0900000000000001 -s 1 -d 2 -p cbr -e 210 -c 2 -i 25 -a 2 -x {1.0 5.0 24 ------- null}
h -t 0.0900000000000001 -s 1 -d 2 -p cbr -e 210 -c 2 -i 25 -a 2 -x {1.0 5.0 -1 ------- null}
r -t 0.09056 -s 1 -d 2 -p cbr -e 210 -c 2 -i 21 -a 2 -x {1.0 5.0 20 ------- null}
+ -t 0.09056 -s 2 -d 3 -p cbr -e 210 -c 2 -i 21 -a 2 -x {1.0 5.0 20 ------- null}
- -t 0.09056 -s 2 -d 3 -p cbr -e 210 -c 2 -i 21 -a 2 -x {1.0 5.0 20 ------- null}
h -t 0.09056 -s 2 -d 3 -p cbr -e 210 -c 2 -i 21 -a 2 -x {1.0 5.0 -1 ------- null}
r -t 0.09112 -s 2 -d 3 -p cbr -e 210 -c 2 -i 17 -a 2 -x {1.0 5.0 16 ------- null}
h -t 0.09112 -s 3 -d 6 -p cbr -e 210 -c 2 -i 17 -a 2 -x {1.0 5.0 16 ------- null}
+ -t 0.09362 -s 3 -d 6 -p cbr -e 210 -c 2 -i 7 -a 2 -x {1.0 5.0 6 ------- null}
- -t 0.09362 -s 3 -d 6 -p cbr -e 210 -c 2 -i 7 -a 2 -x {1.0 5.0 6 ------- null}
h -t 0.09362 -s 3 -d 6 -p cbr -e 210 -c 2 -i 7 -a 2 -x {1.0 5.0 -1 ------- null}
d -t 0.093624 -s 4 -d 6 -p cbr -e 210 -c 2 -i 7 -a 2 -x {1.0 5.0 6 ------- null}
+ -t 0.0937500000000001 -s 1 -d 2 -p cbr -e 210 -c 2 -i 26 -a 2 -x {1.0 5.0 25 ------- null}
- -t 0.0937500000000001 -s 1 -d 2 -p cbr -e 210 -c 2 -i 26 -a 2 -x {1.0 5.0 25 ------- null}
h -t 0.0937500000000001 -s 1 -d 2 -p cbr -e 210 -c 2 -i 26 -a 2 -x {1.0 5.0 -1 ------- null}
r -t 0.09431 -s 1 -d 2 -p cbr -e 210 -c 2 -i 22 -a 2 -x {1.0 5.0 21 ------- null}
+ -t 0.09431 -s 2 -d 3 -p cbr -e 210 -c 2 -i 22 -a 2 -x {1.0 5.0 21 ------- null}
- -t 0.09431 -s 2 -d 3 -p cbr -e 210 -c 2 -i 22 -a 2 -x {1.0 5.0 21 ------- null}
h -t 0.09431 -s 2 -d 3 -p cbr -e 210 -c 2 -i 22 -a 2 -x {1.0 5.0 -1 ------- null}
r -t 0.09487 -s 2 -d 3 -p cbr -e 210 -c 2 -i 18 -a 2 -x {1.0 5.0 17 ------- null}
h -t 0.09487 -s 3 -d 6 -p cbr -e 210 -c 2 -i 18 -a 2 -x {1.0 5.0 17 ------- null}
+ -t 0.09737 -s 3 -d 6 -p cbr -e 210 -c 2 -i 8 -a 2 -x {1.0 5.0 7 ------- null}
- -t 0.09737 -s 3 -d 6 -p cbr -e 210 -c 2 -i 8 -a 2 -x {1.0 5.0 7 ------- null}
h -t 0.09737 -s 3 -d 6 -p cbr -e 210 -c 2 -i 8 -a 2 -x {1.0 5.0 -1 ------- null}
d -t 0.097374 -s 4 -d 6 -p cbr -e 210 -c 2 -i 8 -a 2 -x {1.0 5.0 7 ------- null}
+ -t 0.0975000000000001 -s 1 -d 2 -p cbr -e 210 -c 2 -i 27 -a 2 -x {1.0 5.0 26 ------- null}
- -t 0.0975000000000001 -s 1 -d 2 -p cbr -e 210 -c 2 -i 27 -a 2 -x {1.0 5.0 26 ------- null}
h -t 0.0975000000000001 -s 1 -d 2 -p cbr -e 210 -c 2 -i 27 -a 2 -x {1.0 5.0 -1 ------- null}
r -t 0.09806 -s 1 -d 2 -p cbr -e 210 -c 2 -i 23 -a 2 -x {1.0 5.0 22 ------- null}
+ -t 0.09806 -s 2 -d 3 -p cbr -e 210 -c 2 -i 23 -a 2 -x {1.0 5.0 22 ------- null}
- -t 0.09806 -s 2 -d 3 -p cbr -e 210 -c 2 -i 23 -a 2 -x {1.0 5.0 22 ------- null}
h -t 0.09806 -s 2 -d 3 -p cbr -e 210 -c 2 -i 23 -a 2 -x {1.0 5.0 -1 ------- null}
r -t 0.09862 -s 2 -d 3 -p cbr -e 210 -c 2 -i 19 -a 2 -x {1.0 5.0 18 ------- null}
h -t 0.09862 -s 3 -d 6 -p cbr -e 210 -c 2 -i 19 -a 2 -x {1.0 5.0 18 ------- null}
+ -t 0.10112 -s 3 -d 6 -p cbr -e 210 -c 2 -i 9 -a 2 -x {1.0 5.0 8 ------- null}
- -t 0.10112 -s 3 -d 6 -p cbr -e 210 -c 2 -i 9 -a 2 -x {1.0 5.0 8 ------- null}
h -t 0.10112 -s 3 -d 6 -p cbr -e 210 -c 2 -i 9 -a 2 -x {1.0 5.0 -1 ------- null}
d -t 0.101124 -s 4 -d 6 -p cbr -e 210 -c 2 -i 9 -a 2 -x {1.0 5.0 8 ------- null}
+ -t 0.10125 -s 1 -d 2 -p cbr -e 210 -c 2 -i 28 -a 2 -x {1.0 5.0 27 ------- null}
- -t 0.10125 -s 1 -d 2 -p cbr -e 210 -c 2 -i 28 -a 2 -x {1.0 5.0 27 ------- null}
h -t 0.10125 -s 1 -d 2 -p cbr -e 210 -c 2 -i 28 -a 2 -x {1.0 5.0 -1 ------- null}
r -t 0.10181 -s 1 -d 2 -p cbr -e 210 -c 2 -i 24 -a 2 -x {1.0 5.0 23 ------- null}
+ -t 0.10181 -s 2 -d 3 -p cbr -e 210 -c 2 -i 24 -a 2 -x {1.0 5.0 23 ------- null}
- -t 0.10181 -s 2 -d 3 -p cbr -e 210 -c 2 -i 24 -a 2 -x {1.0 5.0 23 ------- null}
h -t 0.10181 -s 2 -d 3 -p cbr -e 210 -c 2 -i 24 -a 2 -x {1.0 5.0 -1 ------- null}
r -t 0.10237 -s 2 -d 3 -p cbr -e 210 -c 2 -i 20 -a 2 -x {1.0 5.0 19 ------- null}
h -t 0.10237 -s 3 -d 6 -p cbr -e 210 -c 2 -i 20 -a 2 -x {1.0 5.0 19 ------- null}
+ -t 0.10487 -s 3 -d 6 -p cbr -e 210 -c 2 -i 10 -a 2 -x {1.0 5.0 9 ------- null}
- -t 0.10487 -s 3 -d 6 -p cbr -e 210 -c 2 -i 10 -a 2 -x {1.0 5.0 9 ------- null}
h -t 0.10487 -s 3 -d 6 -p cbr -e 210 -c 2 -i 10 -a 2 -x {1.0 5.0 -1 ------- null}
d -t 0.104874 -s 4 -d 6 -p cbr -e 210 -c 2 -i 10 -a 2 -x {1.0 5.0 9 ------- null}
+ -t 0.105 -s 1 -d 2 -p cbr -e 210 -c 2 -i 29 -a 2 -x {1.0 5.0 28 ------- null}
- -t 0.105 -s 1 -d 2 -p cbr -e 210 -c 2 -i 29 -a 2 -x {1.0 5.0 28 ------- null}
h -t 0.105 -s 1 -d 2 -p cbr -e 210 -c 2 -i 29 -a 2 -x {1.0 5.0 -1 ------- null}
r -t 0.10556 -s 1 -d 2 -p cbr -e 210 -c 2 -i 25 -a 2 -x {1.0 5.0 24 ------- null}
+ -t 0.10556 -s 2 -d 3 -p cbr -e 210 -c 2 -i 25 -a 2 -x {1.0 5.0 24 ------- null}
- -t 0.10556 -s 2 -d 3 -p cbr -e 210 -c 2 -i 25 -a 2 -x {1.0 5.0 24 ------- null}
h -t 0.10556 -s 2 -d 3 -p cbr -e 210 -c 2 -i 25 -a 2 -x {1.0 5.0 -1 ------- null}
r -t 0.10612 -s 2 -d 3 -p cbr -e 210 -c 2 -i 21 -a 2 -x {1.0 5.0 20 ------- null}
h -t 0.10612 -s 3 -d 6 -p cbr -e 210 -c 2 -i 21 -a 2 -x {1.0 5.0 20 ------- null}
+ -t 0.10862 -s 3 -d 6 -p cbr -e 210 -c 2 -i 11 -a 2 -x {1.0 5.0 10 ------- null}
- -t 0.10862 -s 3 -d 6 -p cbr -e 210 -c 2 -i 11 -a 2 -x {1.0 5.0 10 ------- null}
h -t 0.10862 -s 3 -d 6 -p cbr -e 210 -c 2 -i 11 -a 2 -x {1.0 5.0 -1 ------- null}
d -t 0.108624 -s 4 -d 6 -p cbr -e 210 -c 2 -i 11 -a 2 -x {1.0 5.0 10 ------- null}
+ -t 0.10875 -s 1 -d 2 -p cbr -e 210 -c 2 -i 30 -a 2 -x {1.0 5.0 29 ------- null}
- -t 0.10875 -s 1 -d 2 -p cbr -e 210 -c 2 -i 30 -a 2 -x {1.0 5.0 29 ------- null}
h -t 0.10875 -s 1 -d 2 -p cbr -e 210 -c 2 -i 30 -a 2 -x {1.0 5.0 -1 ------- null}
r -t 0.10931 -s 1 -d 2 -p cbr -e 210 -c 2 -i 26 -a 2 -x {1.0 5.0 25 ------- null}
+ -t 0.10931 -s 2 -d 3 -p cbr -e 210 -c 2 -i 26 -a 2 -x {1.0 5.0 25 ------- null}
- -t 0.10931 -s 2 -d 3 -p cbr -e 210 -c 2 -i 26 -a 2 -x {1.0 5.0 25 ------- null}
h -t 0.10931 -s 2 -d 3 -p cbr -e 210 -c 2 -i 26 -a 2 -x {1.0 5.0 -1 ------- null}
r -t 0.10987 -s 2 -d 3 -p cbr -e 210 -c 2 -i 22 -a 2 -x {1.0 5.0 21 ------- null}
h -t 0.10987 -s 3 -d 6 -p cbr -e 210 -c 2 -i 22 -a 2 -x {1.0 5.0 21 ------- null}
r -t 0.110217333333333 -s 6 -d 5 -p tcp -e 40 -c 0 -i 1 -a 0 -x {0.0 5.1 0 ------- null}
h -t 0.110217333333333 -s 5 -d 6 -p ack -e 40 -c 0 -i 31 -a 0 -x {5.1 0.0 0 ------- null}
r -t 0.111124 -s 6 -d 5 -p cbr -e 210 -c 2 -i 0 -a 2 -x {1.0 5.0 0 ------- null}
+ -t 0.11237 -s 3 -d 6 -p cbr -e 210 -c 2 -i 12 -a 2 -x {1.0 5.0 11 ------- null}
- -t 0.11237 -s 3 -d 6 -p cbr -e 210 -c 2 -i 12 -a 2 -x {1.0 5.0 11 ------- null}
h -t 0.11237 -s 3 -d 6 -p cbr -e 210 -c 2 -i 12 -a 2 -x {1.0 5.0 -1 ------- null}
d -t 0.112374 -s 4 -d 6 -p cbr -e 210 -c 2 -i 12 -a 2 -x {1.0 5.0 11 ------- null}
+ -t 0.1125 -s 1 -d 2 -p cbr -e 210 -c 2 -i 32 -a 2 -x {1.0 5.0 30 ------- null}
- -t 0.1125 -s 1 -d 2 -p cbr -e 210 -c 2 -i 32 -a 2 -x {1.0 5.0 30 ------- null}
h -t 0.1125 -s 1 -d 2 -p cbr -e 210 -c 2 -i 32 -a 2 -x {1.0 5.0 -1 ------- null}
r -t 0.11306 -s 1 -d 2 -p cbr -e 210 -c 2 -i 27 -a 2 -x {1.0 5.0 26 ------- null}
+ -t 0.11306 -s 2 -d 3 -p cbr -e 210 -c 2 -i 27 -a 2 -x {1.0 5.0 26 ------- null}
- -t 0.11306 -s 2 -d 3 -p cbr -e 210 -c 2 -i 27 -a 2 -x {1.0 5.0 26 ------- null}
h -t 0.11306 -s 2 -d 3 -p cbr -e 210 -c 2 -i 27 -a 2 -x {1.0 5.0 -1 ------- null}
r -t 0.11362 -s 2 -d 3 -p cbr -e 210 -c 2 -i 23 -a 2 -x {1.0 5.0 22 ------- null}
h -t 0.11362 -s 3 -d 6 -p cbr -e 210 -c 2 -i 23 -a 2 -x {1.0 5.0 22 ------- null}
r -t 0.114874 -s 6 -d 5 -p cbr -e 210 -c 2 -i 2 -a 2 -x {1.0 5.0 1 ------- null}
+ -t 0.11612 -s 3 -d 6 -p cbr -e 210 -c 2 -i 13 -a 2 -x {1.0 5.0 12 ------- null}
- -t 0.11612 -s 3 -d 6 -p cbr -e 210 -c 2 -i 13 -a 2 -x {1.0 5.0 12 ------- null}
h -t 0.11612 -s 3 -d 6 -p cbr -e 210 -c 2 -i 13 -a 2 -x {1.0 5.0 -1 ------- null}
d -t 0.116124 -s 4 -d 6 -p cbr -e 210 -c 2 -i 13 -a 2 -x {1.0 5.0 12 ------- null}
+ -t 0.11625 -s 1 -d 2 -p cbr -e 210 -c 2 -i 33 -a 2 -x {1.0 5.0 31 ------- null}
- -t 0.11625 -s 1 -d 2 -p cbr -e 210 -c 2 -i 33 -a 2 -x {1.0 5.0 31 ------- null}
h -t 0.11625 -s 1 -d 2 -p cbr -e 210 -c 2 -i 33 -a 2 -x {1.0 5.0 -1 ------- null}
r -t 0.11681 -s 1 -d 2 -p cbr -e 210 -c 2 -i 28 -a 2 -x {1.0 5.0 27 ------- null}
+ -t 0.11681 -s 2 -d 3 -p cbr -e 210 -c 2 -i 28 -a 2 -x {1.0 5.0 27 ------- null}
- -t 0.11681 -s 2 -d 3 -p cbr -e 210 -c 2 -i 28 -a 2 -x {1.0 5.0 27 ------- null}
h -t 0.11681 -s 2 -d 3 -p cbr -e 210 -c 2 -i 28 -a 2 -x {1.0 5.0 -1 ------- null}
r -t 0.11737 -s 2 -d 3 -p cbr -e 210 -c 2 -i 24 -a 2 -x {1.0 5.0 23 ------- null}
h -t 0.11737 -s 3 -d 6 -p cbr -e 210 -c 2 -i 24 -a 2 -x {1.0 5.0 23 ------- null}
r -t 0.118624 -s 6 -d 5 -p cbr -e 210 -c 2 -i 3 -a 2 -x {1.0 5.0 2 ------- null}
+ -t 0.11987 -s 3 -d 6 -p cbr -e 210 -c 2 -i 14 -a 2 -x {1.0 5.0 13 ------- null}
- -t 0.11987 -s 3 -d 6 -p cbr -e 210 -c 2 -i 14 -a 2 -x {1.0 5.0 13 ------- null}
h -t 0.11987 -s 3 -d 6 -p cbr -e 210 -c 2 -i 14 -a 2 -x {1.0 5.0 -1 ------- null}
d -t 0.119874 -s 4 -d 6 -p cbr -e 210 -c 2 -i 14 -a 2 -x {1.0 5.0 13 ------- null}
+ -t 0.12 -s 1 -d 2 -p cbr -e 210 -c 2 -i 34 -a 2 -x {1.0 5.0 32 ------- null}
- -t 0.12 -s 1 -d 2 -p cbr -e 210 -c 2 -i 34 -a 2 -x {1.0 5.0 32 ------- null}
h -t 0.12 -s 1 -d 2 -p cbr -e 210 -c 2 -i 34 -a 2 -x {1.0 5.0 -1 ------- null}
r -t 0.12056 -s 1 -d 2 -p cbr -e 210 -c 2 -i 29 -a 2 -x {1.0 5.0 28 ------- null}
+ -t 0.12056 -s 2 -d 3 -p cbr -e 210 -c 2 -i 29 -a 2 -x {1.0 5.0 28 ------- null}
- -t 0.12056 -s 2 -d 3 -p cbr -e 210 -c 2 -i 29 -a 2 -x {1.0 5.0 28 ------- null}
h -t 0.12056 -s 2 -d 3 -p cbr -e 210 -c 2 -i 29 -a 2 -x {1.0 5.0 -1 ------- null}
r -t 0.12112 -s 2 -d 3 -p cbr -e 210 -c 2 -i 25 -a 2 -x {1.0 5.0 24 ------- null}
h -t 0.12112 -s 3 -d 6 -p cbr -e 210 -c 2 -i 25 -a 2 -x {1.0 5.0 24 ------- null}
r -t 0.122374 -s 6 -d 5 -p cbr -e 210 -c 2 -i 4 -a 2 -x {1.0 5.0 3 ------- null}
+ -t 0.12362 -s 3 -d 6 -p cbr -e 210 -c 2 -i 15 -a 2 -x {1.0 5.0 14 ------- null}
- -t 0.12362 -s 3 -d 6 -p cbr -e 210 -c 2 -i 15 -a 2 -x {1.0 5.0 14 ------- null}
h -t 0.12362 -s 3 -d 6 -p cbr -e 210 -c 2 -i 15 -a 2 -x {1.0 5.0 -1 ------- null}
d -t 0.123624 -s 4 -d 6 -p cbr -e 210 -c 2 -i 15 -a 2 -x {1.0 5.0 14 ------- null}
+ -t 0.12375 -s 1 -d 2 -p cbr -e 210 -c 2 -i 35 -a 2 -x {1.0 5.0 33 ------- null}
- -t 0.12375 -s 1 -d 2 -p cbr -e 210 -c 2 -i 35 -a 2 -x {1.0 5.0 33 ------- null}
h -t 0.12375 -s 1 -d 2 -p cbr -e 210 -c 2 -i 35 -a 2 -x {1.0 5.0 -1 ------- null}
r -t 0.12431 -s 1 -d 2 -p cbr -e 210 -c 2 -i 30 -a 2 -x {1.0 5.0 29 ------- null}
+ -t 0.12431 -s 2 -d 3 -p cbr -e 210 -c 2 -i 30 -a 2 -x {1.0 5.0 29 ------- null}
- -t 0.12431 -s 2 -d 3 -p cbr -e 210 -c 2 -i 30 -a 2 -x {1.0 5.0 29 ------- null}
h -t 0.12431 -s 2 -d 3 -p cbr -e 210 -c 2 -i 30 -a 2 -x {1.0 5.0 -1 ------- null}
r -t 0.12487 -s 2 -d 3 -p cbr -e 210 -c 2 -i 26 -a 2 -x {1.0 5.0 25 ------- null}
h -t 0.12487 -s 3 -d 6 -p cbr -e 210 -c 2 -i 26 -a 2 -x {1.0 5.0 25 ------- null}
r -t 0.126124 -s 6 -d 5 -p cbr -e 210 -c 2 -i 5 -a 2 -x {1.0 5.0 4 ------- null}
+ -t 0.12737 -s 3 -d 6 -p cbr -e 210 -c 2 -i 16 -a 2 -x {1.0 5.0 15 ------- null}
- -t 0.12737 -s 3 -d 6 -p cbr -e 210 -c 2 -i 16 -a 2 -x {1.0 5.0 15 ------- null}
h -t 0.12737 -s 3 -d 6 -p cbr -e 210 -c 2 -i 16 -a 2 -x {1.0 5.0 -1 ------- null}