+ 2 0 1 cbr 50 ------- 0 0.0 1.0 0 0
- 2 0 1 cbr 50 ------- 0 0.0 1.0 0 0
+ 2.002 0 1 cbr 50 ------- 0 0.0 1.0 1 1
- 2.002 0 1 cbr 50 ------- 0 0.0 1.0 1 1
+ 2.004 0 1 cbr 50 ------- 0 0.0 1.0 2 2
- 2.004 0 1 cbr 50 ------- 0 0.0 1.0 2 2
+ 2.006 0 1 cbr 50 ------- 0 0.0 1.0 3 3
- 2.006 0 1 cbr 50 ------- 0 0.0 1.0 3 3
+ 2.008 0 1 cbr 50 ------- 0 0.0 1.0 4 4
- 2.008 0 1 cbr 50 ------- 0 0.0 1.0 4 4
+ 2.01 0 1 cbr 50 ------- 0 0.0 1.0 5 5
- 2.01 0 1 cbr 50 ------- 0 0.0 1.0 5 5
+ 2.012 0 1 cbr 50 ------- 0 0.0 1.0 6 6
- 2.012 0 1 cbr 50 ------- 0 0.0 1.0 6 6
+ 2.014 0 1 cbr 50 ------- 0 0.0 1.0 7 7
- 2.014 0 1 cbr 50 ------- 0 0.0 1.0 7 7
+ 2.016 0 1 cbr 50 ------- 0 0.0 1.0 8 8
- 2.016 0 1 cbr 50 ------- 0 0.0 1.0 8 8
+ 2.018 0 1 cbr 50 ------- 0 0.0 1.0 9 9
- 2.018 0 1 cbr 50 ------- 0 0.0 1.0 9 9
+ 2.02 0 1 cbr 50 ------- 0 0.0 1.0 10 10
- 2.02 0 1 cbr 50 ------- 0 0.0 1.0 10 10
+ 2.022 0 1 cbr 50 ------- 0 0.0 1.0 11 11
- 2.022 0 1 cbr 50 ------- 0 0.0 1.0 11 11
+ 2.024 0 1 cbr 50 ------- 0 0.0 1.0 12 12
- 2.024 0 1 cbr 50 ------- 0 0.0 1.0 12 12
+ 2.026 0 1 cbr 50 ------- 0 0.0 1.0 13 13
- 2.026 0 1 cbr 50 ------- 0 0.0 1.0 13 13
+ 2.028 0 1 cbr 50 ------- 0 0.0 1.0 14 14
- 2.028 0 1 cbr 50 ------- 0 0.0 1.0 14 14
+ 2.03 0 1 cbr 50 ------- 0 0.0 1.0 15 15
- 2.03 0 1 cbr 50 ------- 0 0.0 1.0 15 15
+ 2.032 0 1 cbr 50 ------- 0 0.0 1.0 16 16
- 2.032 0 1 cbr 50 ------- 0 0.0 1.0 16 16
+ 2.034 0 1 cbr 50 ------- 0 0.0 1.0 17 17
- 2.034 0 1 cbr 50 ------- 0 0.0 1.0 17 17
+ 2.036 0 1 cbr 50 ------- 0 0.0 1.0 18 18
- 2.036 0 1 cbr 50 ------- 0 0.0 1.0 18 18
+ 2.038 0 1 cbr 50 ------- 0 0.0 1.0 19 19
- 2.038 0 1 cbr 50 ------- 0 0.0 1.0 19 19
+ 2.04 0 1 cbr 50 ------- 0 0.0 1.0 20 20
- 2.04 0 1 cbr 50 ------- 0 0.0 1.0 20 20
+ 2.042 0 1 cbr 50 ------- 0 0.0 1.0 21 21
- 2.042 0 1 cbr 50 ------- 0 0.0 1.0 21 21
+ 2.044 0 1 cbr 50 ------- 0 0.0 1.0 22 22
- 2.044 0 1 cbr 50 ------- 0 0.0 1.0 22 22
+ 2.046 0 1 cbr 50 ------- 0 0.0 1.0 23 23
- 2.046 0 1 cbr 50 ------- 0 0.0 1.0 23 23
+ 2.048 0 1 cbr 50 ------- 0 0.0 1.0 24 24
- 2.048 0 1 cbr 50 ------- 0 0.0 1.0 24 24
+ 2.05 0 1 cbr 50 ------- 0 0.0 1.0 25 25
- 2.05 0 1 cbr 50 ------- 0 0.0 1.0 25 25
+ 2.052 0 1 cbr 50 ------- 0 0.0 1.0 26 26
- 2.052 0 1 cbr 50 ------- 0 0.0 1.0 26 26
+ 2.054 0 1 cbr 50 ------- 0 0.0 1.0 27 27
- 2.054 0 1 cbr 50 ------- 0 0.0 1.0 27 27
+ 2.056 0 1 cbr 50 ------- 0 0.0 1.0 28 28
- 2.056 0 1 cbr 50 ------- 0 0.0 1.0 28 28
+ 2.058 0 1 cbr 50 ------- 0 0.0 1.0 29 29
- 2.058 0 1 cbr 50 ------- 0 0.0 1.0 29 29
+ 2.06 0 1 cbr 50 ------- 0 0.0 1.0 30 30
- 2.06 0 1 cbr 50 ------- 0 0.0 1.0 30 30
+ 2.062 0 1 cbr 50 ------- 0 0.0 1.0 31 31
- 2.062 0 1 cbr 50 ------- 0 0.0 1.0 31 31
+ 2.064 0 1 cbr 50 ------- 0 0.0 1.0 32 32
- 2.064 0 1 cbr 50 ------- 0 0.0 1.0 32 32
+ 2.066 0 1 cbr 50 ------- 0 0.0 1.0 33 33
- 2.066 0 1 cbr 50 ------- 0 0.0 1.0 33 33
+ 2.068 0 1 cbr 50 ------- 0 0.0 1.0 34 34
- 2.068 0 1 cbr 50 ------- 0 0.0 1.0 34 34
+ 2.07 0 1 cbr 50 ------- 0 0.0 1.0 35 35
- 2.07 0 1 cbr 50 ------- 0 0.0 1.0 35 35
+ 2.072 0 1 cbr 50 ------- 0 0.0 1.0 36 36
- 2.072 0 1 cbr 50 ------- 0 0.0 1.0 36 36
+ 2.074 0 1 cbr 50 ------- 0 0.0 1.0 37 37
- 2.074 0 1 cbr 50 ------- 0 0.0 1.0 37 37
+ 2.076 0 1 cbr 50 ------- 0 0.0 1.0 38 38
- 2.076 0 1 cbr 50 ------- 0 0.0 1.0 38 38
+ 2.078 0 1 cbr 50 ------- 0 0.0 1.0 39 39
- 2.078 0 1 cbr 50 ------- 0 0.0 1.0 39 39
+ 2.08 0 1 cbr 50 ------- 0 0.0 1.0 40 40
- 2.08 0 1 cbr 50 ------- 0 0.0 1.0 40 40
+ 2.082 0 1 cbr 50 ------- 0 0.0 1.0 41 41
- 2.082 0 1 cbr 50 ------- 0 0.0 1.0 41 41
+ 2.084 0 1 cbr 50 ------- 0 0.0 1.0 42 42
- 2.084 0 1 cbr 50 ------- 0 0.0 1.0 42 42
+ 2.086 0 1 cbr 50 ------- 0 0.0 1.0 43 43
- 2.086 0 1 cbr 50 ------- 0 0.0 1.0 43 43
+ 2.088 0 1 cbr 50 ------- 0 0.0 1.0 44 44
- 2.088 0 1 cbr 50 ------- 0 0.0 1.0 44 44
+ 2.09 0 1 cbr 50 ------- 0 0.0 1.0 45 45
- 2.09 0 1 cbr 50 ------- 0 0.0 1.0 45 45
+ 2.092 0 1 cbr 50 ------- 0 0.0 1.0 46 46
- 2.092 0 1 cbr 50 ------- 0 0.0 1.0 46 46
+ 2.094 0 1 cbr 50 ------- 0 0.0 1.0 47 47
- 2.094 0 1 cbr 50 ------- 0 0.0 1.0 47 47
+ 2.096 0 1 cbr 50 ------- 0 0.0 1.0 48 48
- 2.096 0 1 cbr 50 ------- 0 0.0 1.0 48 48
+ 2.098 0 1 cbr 50 ------- 0 0.0 1.0 49 49
- 2.098 0 1 cbr 50 ------- 0 0.0 1.0 49 49
+ 2.1 0 1 cbr 50 ------- 0 0.0 1.0 50 50
- 2.1 0 1 cbr 50 ------- 0 0.0 1.0 50 50
+ 2.102 0 1 cbr 50 ------- 0 0.0 1.0 51 51
- 2.102 0 1 cbr 50 ------- 0 0.0 1.0 51 51
+ 2.104 0 1 cbr 50 ------- 0 0.0 1.0 52 52
- 2.104 0 1 cbr 50 ------- 0 0.0 1.0 52 52
+ 2.106 0 1 cbr 50 ------- 0 0.0 1.0 53 53
- 2.106 0 1 cbr 50 ------- 0 0.0 1.0 53 53
+ 2.108 0 1 cbr 50 ------- 0 0.0 1.0 54 54
- 2.108 0 1 cbr 50 ------- 0 0.0 1.0 54 54
+ 2.11 0 1 cbr 50 ------- 0 0.0 1.0 55 55
- 2.11 0 1 cbr 50 ------- 0 0.0 1.0 55 55
+ 2.112 0 1 cbr 50 ------- 0 0.0 1.0 56 56
- 2.112 0 1 cbr 50 ------- 0 0.0 1.0 56 56
+ 2.114 0 1 cbr 50 ------- 0 0.0 1.0 57 57
- 2.114 0 1 cbr 50 ------- 0 0.0 1.0 57 57
+ 2.116 0 1 cbr 50 ------- 0 0.0 1.0 58 58
- 2.116 0 1 cbr 50 ------- 0 0.0 1.0 58 58
+ 2.118 0 1 cbr 50 ------- 0 0.0 1.0 59 59
- 2.118 0 1 cbr 50 ------- 0 0.0 1.0 59 59
+ 2.12 0 1 cbr 50 ------- 0 0.0 1.0 60 60
- 2.12 0 1 cbr 50 ------- 0 0.0 1.0 60 60
+ 2.122 0 1 cbr 50 ------- 0 0.0 1.0 61 61
- 2.122 0 1 cbr 50 ------- 0 0.0 1.0 61 61
+ 2.124 0 1 cbr 50 ------- 0 0.0 1.0 62 62
- 2.124 0 1 cbr 50 ------- 0 0.0 1.0 62 62
+ 2.126 0 1 cbr 50 ------- 0 0.0 1.0 63 63
- 2.126 0 1 cbr 50 ------- 0 0.0 1.0 63 63
+ 2.128 0 1 cbr 50 ------- 0 0.0 1.0 64 64
- 2.128 0 1 cbr 50 ------- 0 0.0 1.0 64 64
+ 2.13 0 1 cbr 50 ------- 0 0.0 1.0 65 65
- 2.13 0 1 cbr 50 ------- 0 0.0 1.0 65 65
+ 2.132 0 1 cbr 50 ------- 0 0.0 1.0 66 66
- 2.132 0 1 cbr 50 ------- 0 0.0 1.0 66 66
+ 2.134 0 1 cbr 50 ------- 0 0.0 1.0 67 67
- 2.134 0 1 cbr 50 ------- 0 0.0 1.0 67 67
+ 2.136 0 1 cbr 50 ------- 0 0.0 1.0 68 68
- 2.136 0 1 cbr 50 ------- 0 0.0 1.0 68 68
+ 2.138 0 1 cbr 50 ------- 0 0.0 1.0 69 69
- 2.138 0 1 cbr 50 ------- 0 0.0 1.0 69 69
+ 2.14 0 1 cbr 50 ------- 0 0.0 1.0 70 70
- 2.14 0 1 cbr 50 ------- 0 0.0 1.0 70 70
+ 2.142 0 1 cbr 50 ------- 0 0.0 1.0 71 71
- 2.142 0 1 cbr 50 ------- 0 0.0 1.0 71 71
+ 2.144 0 1 cbr 50 ------- 0 0.0 1.0 72 72
- 2.144 0 1 cbr 50 ------- 0 0.0 1.0 72 72
+ 2.146 0 1 cbr 50 ------- 0 0.0 1.0 73 73
- 2.146 0 1 cbr 50 ------- 0 0.0 1.0 73 73
+ 2.148 0 1 cbr 50 ------- 0 0.0 1.0 74 74
- 2.148 0 1 cbr 50 ------- 0 0.0 1.0 74 74
+ 2.15 0 1 cbr 50 ------- 0 0.0 1.0 75 75
- 2.15 0 1 cbr 50 ------- 0 0.0 1.0 75 75
+ 2.152 0 1 cbr 50 ------- 0 0.0 1.0 76 76
- 2.152 0 1 cbr 50 ------- 0 0.0 1.0 76 76
+ 2.154 0 1 cbr 50 ------- 0 0.0 1.0 77 77
- 2.154 0 1 cbr 50 ------- 0 0.0 1.0 77 77
+ 2.156 0 1 cbr 50 ------- 0 0.0 1.0 78 78
- 2.156 0 1 cbr 50 ------- 0 0.0 1.0 78 78
+ 2.158 0 1 cbr 50 ------- 0 0.0 1.0 79 79
- 2.158 0 1 cbr 50 ------- 0 0.0 1.0 79 79
+ 2.16 0 1 cbr 50 ------- 0 0.0 1.0 80 80
- 2.16 0 1 cbr 50 ------- 0 0.0 1.0 80 80
+ 2.162 0 1 cbr 50 ------- 0 0.0 1.0 81 81
- 2.162 0 1 cbr 50 ------- 0 0.0 1.0 81 81
+ 2.164 0 1 cbr 50 ------- 0 0.0 1.0 82 82
- 2.164 0 1 cbr 50 ------- 0 0.0 1.0 82 82
+ 2.166 0 1 cbr 50 ------- 0 0.0 1.0 83 83
- 2.166 0 1 cbr 50 ------- 0 0.0 1.0 83 83
+ 2.168 0 1 cbr 50 ------- 0 0.0 1.0 84 84
- 2.168 0 1 cbr 50 ------- 0 0.0 1.0 84 84
+ 2.17 0 1 cbr 50 ------- 0 0.0 1.0 85 85
- 2.17 0 1 cbr 50 ------- 0 0.0 1.0 85 85
+ 2.172 0 1 cbr 50 ------- 0 0.0 1.0 86 86
- 2.172 0 1 cbr 50 ------- 0 0.0 1.0 86 86
+ 2.174 0 1 cbr 50 ------- 0 0.0 1.0 87 87
- 2.174 0 1 cbr 50 ------- 0 0.0 1.0 87 87
+ 2.176 0 1 cbr 50 ------- 0 0.0 1.0 88 88
- 2.176 0 1 cbr 50 ------- 0 0.0 1.0 88 88
+ 2.178 0 1 cbr 50 ------- 0 0.0 1.0 89 89
- 2.178 0 1 cbr 50 ------- 0 0.0 1.0 89 89
+ 2.18 0 1 cbr 50 ------- 0 0.0 1.0 90 90
- 2.18 0 1 cbr 50 ------- 0 0.0 1.0 90 90
+ 2.182 0 1 cbr 50 ------- 0 0.0 1.0 91 91
- 2.182 0 1 cbr 50 ------- 0 0.0 1.0 91 91
+ 2.184 0 1 cbr 50 ------- 0 0.0 1.0 92 92
- 2.184 0 1 cbr 50 ------- 0 0.0 1.0 92 92
+ 2.186 0 1 cbr 50 ------- 0 0.0 1.0 93 93
- 2.186 0 1 cbr 50 ------- 0 0.0 1.0 93 93
+ 2.188 0 1 cbr 50 ------- 0 0.0 1.0 94 94
- 2.188 0 1 cbr 50 ------- 0 0.0 1.0 94 94
+ 2.19 0 1 cbr 50 ------- 0 0.0 1.0 95 95
- 2.19 0 1 cbr 50 ------- 0 0.0 1.0 95 95
+ 2.192 0 1 cbr 50 ------- 0 0.0 1.0 96 96
- 2.192 0 1 cbr 50 ------- 0 0.0 1.0 96 96
+ 2.194 0 1 cbr 50 ------- 0 0.0 1.0 97 97
- 2.194 0 1 cbr 50 ------- 0 0.0 1.0 97 97
+ 2.196 0 1 cbr 50 ------- 0 0.0 1.0 98 98
- 2.196 0 1 cbr 50 ------- 0 0.0 1.0 98 98
+ 2.198 0 1 cbr 50 ------- 0 0.0 1.0 99 99
- 2.198 0 1 cbr 50 ------- 0 0.0 1.0 99 99
+ 2.2 0 1 cbr 50 ------- 0 0.0 1.0 100 100
- 2.2 0 1 cbr 50 ------- 0 0.0 1.0 100 100
+ 2.202 0 1 cbr 50 ------- 0 0.0 1.0 101 101
- 2.202 0 1 cbr 50 ------- 0 0.0 1.0 101 101
+ 2.204 0 1 cbr 50 ------- 0 0.0 1.0 102 102
- 2.204 0 1 cbr 50 ------- 0 0.0 1.0 102 102
+ 2.206 0 1 cbr 50 ------- 0 0.0 1.0 103 103
- 2.206 0 1 cbr 50 ------- 0 0.0 1.0 103 103
+ 2.208 0 1 cbr 50 ------- 0 0.0 1.0 104 104
- 2.208 0 1 cbr 50 ------- 0 0.0 1.0 104 104
+ 2.21 0 1 cbr 50 ------- 0 0.0 1.0 105 105
- 2.21 0 1 cbr 50 ------- 0 0.0 1.0 105 105
+ 2.212 0 1 cbr 50 ------- 0 0.0 1.0 106 106
- 2.212 0 1 cbr 50 ------- 0 0.0 1.0 106 106
+ 2.214 0 1 cbr 50 ------- 0 0.0 1.0 107 107
- 2.214 0 1 cbr 50 ------- 0 0.0 1.0 107 107
+ 2.216 0 1 cbr 50 ------- 0 0.0 1.0 108 108
- 2.216 0 1 cbr 50 ------- 0 0.0 1.0 108 108
+ 2.218 0 1 cbr 50 ------- 0 0.0 1.0 109 109
- 2.218 0 1 cbr 50 ------- 0 0.0 1.0 109 109
+ 2.22 0 1 cbr 50 ------- 0 0.0 1.0 110 110
- 2.22 0 1 cbr 50 ------- 0 0.0 1.0 110 110
+ 2.222 0 1 cbr 50 ------- 0 0.0 1.0 111 111
- 2.222 0 1 cbr 50 ------- 0 0.0 1.0 111 111
+ 2.224 0 1 cbr 50 ------- 0 0.0 1.0 112 112
- 2.224 0 1 cbr 50 ------- 0 0.0 1.0 112 112
+ 2.226 0 1 cbr 50 ------- 0 0.0 1.0 113 113
- 2.226 0 1 cbr 50 ------- 0 0.0 1.0 113 113
+ 2.228 0 1 cbr 50 ------- 0 0.0 1.0 114 114
- 2.228 0 1 cbr 50 ------- 0 0.0 1.0 114 114
+ 2.23 0 1 cbr 50 ------- 0 0.0 1.0 115 115
- 2.23 0 1 cbr 50 ------- 0 0.0 1.0 115 115
+ 2.232 0 1 cbr 50 ------- 0 0.0 1.0 116 116
- 2.232 0 1 cbr 50 ------- 0 0.0 1.0 116 116
+ 2.234 0 1 cbr 50 ------- 0 0.0 1.0 117 117
- 2.234 0 1 cbr 50 ------- 0 0.0 1.0 117 117
+ 2.236 0 1 cbr 50 ------- 0 0.0 1.0 118 118
- 2.236 0 1 cbr 50 ------- 0 0.0 1.0 118 118
+ 2.238 0 1 cbr 50 ------- 0 0.0 1.0 119 119
- 2.238 0 1 cbr 50 ------- 0 0.0 1.0 119 119
+ 2.24 0 1 cbr 50 ------- 0 0.0 1.0 120 120
- 2.24 0 1 cbr 50 ------- 0 0.0 1.0 120 120
+ 2.242 0 1 cbr 50 ------- 0 0.0 1.0 121 121
- 2.242 0 1 cbr 50 ------- 0 0.0 1.0 121 121
+ 2.244 0 1 cbr 50 ------- 0 0.0 1.0 122 122
- 2.244 0 1 cbr 50 ------- 0 0.0 1.0 122 122
+ 2.246 0 1 cbr 50 ------- 0 0.0 1.0 123 123
- 2.246 0 1 cbr 50 ------- 0 0.0 1.0 123 123
+ 2.248 0 1 cbr 50 ------- 0 0.0 1.0 124 124
- 2.248 0 1 cbr 50 ------- 0 0.0 1.0 124 124
+ 2.25 0 1 cbr 50 ------- 0 0.0 1.0 125 125
- 2.25 0 1 cbr 50 ------- 0 0.0 1.0 125 125
+ 2.252 0 1 cbr 50 ------- 0 0.0 1.0 126 126
- 2.252 0 1 cbr 50 ------- 0 0.0 1.0 126 126
+ 2.254 0 1 cbr 50 ------- 0 0.0 1.0 127 127
- 2.254 0 1 cbr 50 ------- 0 0.0 1.0 127 127
+ 2.256 0 1 cbr 50 ------- 0 0.0 1.0 128 128
- 2.256 0 1 cbr 50 ------- 0 0.0 1.0 128 128
+ 2.258 0 1 cbr 50 ------- 0 0.0 1.0 129 129
- 2.258 0 1 cbr 50 ------- 0 0.0 1.0 129 129
+ 2.26 0 1 cbr 50 ------- 0 0.0 1.0 130 130
- 2.26 0 1 cbr 50 ------- 0 0.0 1.0 130 130
+ 2.262 0 1 cbr 50 ------- 0 0.0 1.0 131 131
- 2.262 0 1 cbr 50 ------- 0 0.0 1.0 131 131
+ 2.264 0 1 cbr 50 ------- 0 0.0 1.0 132 132
- 2.264 0 1 cbr 50 ------- 0 0.0 1.0 132 132
+ 2.266 0 1 cbr 50 ------- 0 0.0 1.0 133 133
- 2.266 0 1 cbr 50 ------- 0 0.0 1.0 133 133
+ 2.268 0 1 cbr 50 ------- 0 0.0 1.0 134 134
- 2.268 0 1 cbr 50 ------- 0 0.0 1.0 134 134
+ 2.27 0 1 cbr 50 ------- 0 0.0 1.0 135 135
- 2.27 0 1 cbr 50 ------- 0 0.0 1.0 135 135
+ 2.272 0 1 cbr 50 ------- 0 0.0 1.0 136 136
- 2.272 0 1 cbr 50 ------- 0 0.0 1.0 136 136
+ 2.274 0 1 cbr 50 ------- 0 0.0 1.0 137 137
- 2.274 0 1 cbr 50 ------- 0 0.0 1.0 137 137
+ 2.276 0 1 cbr 50 ------- 0 0.0 1.0 138 138
- 2.276 0 1 cbr 50 ------- 0 0.0 1.0 138 138
+ 2.278 0 1 cbr 50 ------- 0 0.0 1.0 139 139
- 2.278 0 1 cbr 50 ------- 0 0.0 1.0 139 139
+ 2.28 0 1 cbr 50 ------- 0 0.0 1.0 140 140
- 2.28 0 1 cbr 50 ------- 0 0.0 1.0 140 140
+ 2.282 0 1 cbr 50 ------- 0 0.0 1.0 141 141
- 2.282 0 1 cbr 50 ------- 0 0.0 1.0 141 141
+ 2.284 0 1 cbr 50 ------- 0 0.0 1.0 142 142
- 2.284 0 1 cbr 50 ------- 0 0.0 1.0 142 142
+ 2.286 0 1 cbr 50 ------- 0 0.0 1.0 143 143
- 2.286 0 1 cbr 50 ------- 0 0.0 1.0 143 143
+ 2.288 0 1 cbr 50 ------- 0 0.0 1.0 144 144
- 2.288 0 1 cbr 50 ------- 0 0.0 1.0 144 144
+ 2.29 0 1 cbr 50 ------- 0 0.0 1.0 145 145
- 2.29 0 1 cbr 50 ------- 0 0.0 1.0 145 145
+ 2.292 0 1 cbr 50 ------- 0 0.0 1.0 146 146
- 2.292 0 1 cbr 50 ------- 0 0.0 1.0 146 146
+ 2.294 0 1 cbr 50 ------- 0 0.0 1.0 147 147
- 2.294 0 1 cbr 50 ------- 0 0.0 1.0 147 147
+ 2.296 0 1 cbr 50 ------- 0 0.0 1.0 148 148
- 2.296 0 1 cbr 50 ------- 0 0.0 1.0 148 148
+ 2.298 0 1 cbr 50 ------- 0 0.0 1.0 149 149
- 2.298 0 1 cbr 50 ------- 0 0.0 1.0 149 149
+ 2.3 0 1 cbr 50 ------- 0 0.0 1.0 150 150
- 2.3 0 1 cbr 50 ------- 0 0.0 1.0 150 150
+ 2.302 0 1 cbr 50 ------- 0 0.0 1.0 151 151
- 2.302 0 1 cbr 50 ------- 0 0.0 1.0 151 151
+ 2.304 0 1 cbr 50 ------- 0 0.0 1.0 152 152
- 2.304 0 1 cbr 50 ------- 0 0.0 1.0 152 152
+ 2.306 0 1 cbr 50 ------- 0 0.0 1.0 153 153
- 2.306 0 1 cbr 50 ------- 0 0.0 1.0 153 153
+ 2.308 0 1 cbr 50 ------- 0 0.0 1.0 154 154
- 2.308 0 1 cbr 50 ------- 0 0.0 1.0 154 154
+ 2.31 0 1 cbr 50 ------- 0 0.0 1.0 155 155
- 2.31 0 1 cbr 50 ------- 0 0.0 1.0 155 155
+ 2.312 0 1 cbr 50 ------- 0 0.0 1.0 156 156
- 2.312 0 1 cbr 50 ------- 0 0.0 1.0 156 156
+ 2.314 0 1 cbr 50 ------- 0 0.0 1.0 157 157
- 2.314 0 1 cbr 50 ------- 0 0.0 1.0 157 157
+ 2.316 0 1 cbr 50 ------- 0 0.0 1.0 158 158
- 2.316 0 1 cbr 50 ------- 0 0.0 1.0 158 158
+ 2.318 0 1 cbr 50 ------- 0 0.0 1.0 159 159
- 2.318 0 1 cbr 50 ------- 0 0.0 1.0 159 159
+ 2.32 0 1 cbr 50 ------- 0 0.0 1.0 160 160
- 2.32 0 1 cbr 50 ------- 0 0.0 1.0 160 160
+ 2.322 0 1 cbr 50 ------- 0 0.0 1.0 161 161
- 2.322 0 1 cbr 50 ------- 0 0.0 1.0 161 161
+ 2.324 0 1 cbr 50 ------- 0 0.0 1.0 162 162
- 2.324 0 1 cbr 50 ------- 0 0.0 1.0 162 162
+ 2.326 0 1 cbr 50 ------- 0 0.0 1.0 163 163
- 2.326 0 1 cbr 50 ------- 0 0.0 1.0 163 163
+ 2.328 0 1 cbr 50 ------- 0 0.0 1.0 164 164
- 2.328 0 1 cbr 50 ------- 0 0.0 1.0 164 164
+ 2.33 0 1 cbr 50 ------- 0 0.0 1.0 165 165
- 2.33 0 1 cbr 50 ------- 0 0.0 1.0 165 165
+ 2.332 0 1 cbr 50 ------- 0 0.0 1.0 166 166
- 2.332 0 1 cbr 50 ------- 0 0.0 1.0 166 166
+ 2.334 0 1 cbr 50 ------- 0 0.0 1.0 167 167
- 2.334 0 1 cbr 50 ------- 0 0.0 1.0 167 167
+ 2.336 0 1 cbr 50 ------- 0 0.0 1.0 168 168
- 2.336 0 1 cbr 50 ------- 0 0.0 1.0 168 168
+ 2.338 0 1 cbr 50 ------- 0 0.0 1.0 169 169
- 2.338 0 1 cbr 50 ------- 0 0.0 1.0 169 169
+ 2.34 0 1 cbr 50 ------- 0 0.0 1.0 170 170
- 2.34 0 1 cbr 50 ------- 0 0.0 1.0 170 170
+ 2.342 0 1 cbr 50 ------- 0 0.0 1.0 171 171
- 2.342 0 1 cbr 50 ------- 0 0.0 1.0 171 171
+ 2.344 0 1 cbr 50 ------- 0 0.0 1.0 172 172
- 2.344 0 1 cbr 50 ------- 0 0.0 1.0 172 172
+ 2.346 0 1 cbr 50 ------- 0 0.0 1.0 173 173
- 2.346 0 1 cbr 50 ------- 0 0.0 1.0 173 173
+ 2.348 0 1 cbr 50 ------- 0 0.0 1.0 174 174
- 2.348 0 1 cbr 50 ------- 0 0.0 1.0 174 174
+ 2.35 0 1 cbr 50 ------- 0 0.0 1.0 175 175
- 2.35 0 1 cbr 50 ------- 0 0.0 1.0 175 175
+ 2.352 0 1 cbr 50 ------- 0 0.0 1.0 176 176
- 2.352 0 1 cbr 50 ------- 0 0.0 1.0 176 176
+ 2.354 0 1 cbr 50 ------- 0 0.0 1.0 177 177
- 2.354 0 1 cbr 50 ------- 0 0.0 1.0 177 177
+ 2.356 0 1 cbr 50 ------- 0 0.0 1.0 178 178
- 2.356 0 1 cbr 50 ------- 0 0.0 1.0 178 178
+ 2.358 0 1 cbr 50 ------- 0 0.0 1.0 179 179
- 2.358 0 1 cbr 50 ------- 0 0.0 1.0 179 179
+ 2.36 0 1 cbr 50 ------- 0 0.0 1.0 180 180
- 2.36 0 1 cbr 50 ------- 0 0.0 1.0 180 180
+ 2.362 0 1 cbr 50 ------- 0 0.0 1.0 181 181
- 2.362 0 1 cbr 50 ------- 0 0.0 1.0 181 181
+ 2.364 0 1 cbr 50 ------- 0 0.0 1.0 182 182
- 2.364 0 1 cbr 50 ------- 0 0.0 1.0 182 182
+ 2.366 0 1 cbr 50 ------- 0 0.0 1.0 183 183
- 2.366 0 1 cbr 50 ------- 0 0.0 1.0 183 183
+ 2.368 0 1 cbr 50 ------- 0 0.0 1.0 184 184
- 2.368 0 1 cbr 50 ------- 0 0.0 1.0 184 184
+ 2.37 0 1 cbr 50 ------- 0 0.0 1.0 185 185
- 2.37 0 1 cbr 50 ------- 0 0.0 1.0 185 185
+ 2.372 0 1 cbr 50 ------- 0 0.0 1.0 186 186
- 2.372 0 1 cbr 50 ------- 0 0.0 1.0 186 186
+ 2.374 0 1 cbr 50 ------- 0 0.0 1.0 187 187
- 2.374 0 1 cbr 50 ------- 0 0.0 1.0 187 187
+ 2.376 0 1 cbr 50 ------- 0 0.0 1.0 188 188
- 2.376 0 1 cbr 50 ------- 0 0.0 1.0 188 188
+ 2.378 0 1 cbr 50 ------- 0 0.0 1.0 189 189
- 2.378 0 1 cbr 50 ------- 0 0.0 1.0 189 189
+ 2.38 0 1 cbr 50 ------- 0 0.0 1.0 190 190
- 2.38 0 1 cbr 50 ------- 0 0.0 1.0 190 190
+ 2.382 0 1 cbr 50 ------- 0 0.0 1.0 191 191
- 2.382 0 1 cbr 50 ------- 0 0.0 1.0 191 191
+ 2.384 0 1 cbr 50 ------- 0 0.0 1.0 192 192
- 2.384 0 1 cbr 50 ------- 0 0.0 1.0 192 192
+ 2.386 0 1 cbr 50 ------- 0 0.0 1.0 193 193
- 2.386 0 1 cbr 50 ------- 0 0.0 1.0 193 193
+ 2.388 0 1 cbr 50 ------- 0 0.0 1.0 194 194
- 2.388 0 1 cbr 50 ------- 0 0.0 1.0 194 194
+ 2.39 0 1 cbr 50 ------- 0 0.0 1.0 195 195
- 2.39 0 1 cbr 50 ------- 0 0.0 1.0 195 195
+ 2.392 0 1 cbr 50 ------- 0 0.0 1.0 196 196
- 2.392 0 1 cbr 50 ------- 0 0.0 1.0 196 196
+ 2.394 0 1 cbr 50 ------- 0 0.0 1.0 197 197
- 2.394 0 1 cbr 50 ------- 0 0.0 1.0 197 197
+ 2.396 0 1 cbr 50 ------- 0 0.0 1.0 198 198
- 2.396 0 1 cbr 50 ------- 0 0.0 1.0 198 198
+ 2.398 0 1 cbr 50 ------- 0 0.0 1.0 199 199
- 2.398 0 1 cbr 50 ------- 0 0.0 1.0 199 199
+ 2.4 0 1 cbr 50 ------- 0 0.0 1.0 200 200
- 2.4 0 1 cbr 50 ------- 0 0.0 1.0 200 200
+ 2.402 0 1 cbr 50 ------- 0 0.0 1.0 201 201
- 2.402 0 1 cbr 50 ------- 0 0.0 1.0 201 201
+ 2.404 0 1 cbr 50 ------- 0 0.0 1.0 202 202
- 2.404 0 1 cbr 50 ------- 0 0.0 1.0 202 202
+ 2.406 0 1 cbr 50 ------- 0 0.0 1.0 203 203
- 2.406 0 1 cbr 50 ------- 0 0.0 1.0 203 203
+ 2.408 0 1 cbr 50 ------- 0 0.0 1.0 204 204
- 2.408 0 1 cbr 50 ------- 0 0.0 1.0 204 204
+ 2.41 0 1 cbr 50 ------- 0 0.0 1.0 205 205
- 2.41 0 1 cbr 50 ------- 0 0.0 1.0 205 205
+ 2.412 0 1 cbr 50 ------- 0 0.0 1.0 206 206
- 2.412 0 1 cbr 50 ------- 0 0.0 1.0 206 206
+ 2.414 0 1 cbr 50 ------- 0 0.0 1.0 207 207
- 2.414 0 1 cbr 50 ------- 0 0.0 1.0 207 207
+ 2.416 0 1 cbr 50 ------- 0 0.0 1.0 208 208
- 2.416 0 1 cbr 50 ------- 0 0.0 1.0 208 208
+ 2.418 0 1 cbr 50 ------- 0 0.0 1.0 209 209
- 2.418 0 1 cbr 50 ------- 0 0.0 1.0 209 209
+ 2.42 0 1 cbr 50 ------- 0 0.0 1.0 210 210
- 2.42 0 1 cbr 50 ------- 0 0.0 1.0 210 210
+ 2.422 0 1 cbr 50 ------- 0 0.0 1.0 211 211
- 2.422 0 1 cbr 50 ------- 0 0.0 1.0 211 211
+ 2.424 0 1 cbr 50 ------- 0 0.0 1.0 212 212
- 2.424 0 1 cbr 50 ------- 0 0.0 1.0 212 212
+ 2.426 0 1 cbr 50 ------- 0 0.0 1.0 213 213
- 2.426 0 1 cbr 50 ------- 0 0.0 1.0 213 213
+ 2.428 0 1 cbr 50 ------- 0 0.0 1.0 214 214
- 2.428 0 1 cbr 50 ------- 0 0.0 1.0 214 214
+ 2.43 0 1 cbr 50 ------- 0 0.0 1.0 215 215
- 2.43 0 1 cbr 50 ------- 0 0.0 1.0 215 215
+ 2.432 0 1 cbr 50 ------- 0 0.0 1.0 216 216
- 2.432 0 1 cbr 50 ------- 0 0.0 1.0 216 216
+ 2.434 0 1 cbr 50 ------- 0 0.0 1.0 217 217
- 2.434 0 1 cbr 50 ------- 0 0.0 1.0 217 217
+ 2.436 0 1 cbr 50 ------- 0 0.0 1.0 218 218
- 2.436 0 1 cbr 50 ------- 0 0.0 1.0 218 218
+ 2.438 0 1 cbr 50 ------- 0 0.0 1.0 219 219
- 2.438 0 1 cbr 50 ------- 0 0.0 1.0 219 219
+ 2.44 0 1 cbr 50 ------- 0 0.0 1.0 220 220
- 2.44 0 1 cbr 50 ------- 0 0.0 1.0 220 220
+ 2.442 0 1 cbr 50 ------- 0 0.0 1.0 221 221
- 2.442 0 1 cbr 50 ------- 0 0.0 1.0 221 221
+ 2.444 0 1 cbr 50 ------- 0 0.0 1.0 222 222
- 2.444 0 1 cbr 50 ------- 0 0.0 1.0 222 222
+ 2.446 0 1 cbr 50 ------- 0 0.0 1.0 223 223
- 2.446 0 1 cbr 50 ------- 0 0.0 1.0 223 223
+ 2.448 0 1 cbr 50 ------- 0 0.0 1.0 224 224
- 2.448 0 1 cbr 50 ------- 0 0.0 1.0 224 224
+ 2.45 0 1 cbr 50 ------- 0 0.0 1.0 225 225
- 2.45 0 1 cbr 50 ------- 0 0.0 1.0 225 225
+ 2.452 0 1 cbr 50 ------- 0 0.0 1.0 226 226
- 2.452 0 1 cbr 50 ------- 0 0.0 1.0 226 226
+ 2.454 0 1 cbr 50 ------- 0 0.0 1.0 227 227
- 2.454 0 1 cbr 50 ------- 0 0.0 1.0 227 227
+ 2.456 0 1 cbr 50 ------- 0 0.0 1.0 228 228
- 2.456 0 1 cbr 50 ------- 0 0.0 1.0 228 228
+ 2.458 0 1 cbr 50 ------- 0 0.0 1.0 229 229
- 2.458 0 1 cbr 50 ------- 0 0.0 1.0 229 229
+ 2.46 0 1 cbr 50 ------- 0 0.0 1.0 230 230
- 2.46 0 1 cbr 50 ------- 0 0.0 1.0 230 230
+ 2.462 0 1 cbr 50 ------- 0 0.0 1.0 231 231
- 2.462 0 1 cbr 50 ------- 0 0.0 1.0 231 231
+ 2.464 0 1 cbr 50 ------- 0 0.0 1.0 232 232
- 2.464 0 1 cbr 50 ------- 0 0.0 1.0 232 232
+ 2.466 0 1 cbr 50 ------- 0 0.0 1.0 233 233
- 2.466 0 1 cbr 50 ------- 0 0.0 1.0 233 233
+ 2.468 0 1 cbr 50 ------- 0 0.0 1.0 234 234
- 2.468 0 1 cbr 50 ------- 0 0.0 1.0 234 234
+ 2.47 0 1 cbr 50 ------- 0 0.0 1.0 235 235
- 2.47 0 1 cbr 50 ------- 0 0.0 1.0 235 235
+ 2.472 0 1 cbr 50 ------- 0 0.0 1.0 236 236
- 2.472 0 1 cbr 50 ------- 0 0.0 1.0 236 236
+ 2.474 0 1 cbr 50 ------- 0 0.0 1.0 237 237
- 2.474 0 1 cbr 50 ------- 0 0.0 1.0 237 237
+ 2.476 0 1 cbr 50 ------- 0 0.0 1.0 238 238
- 2.476 0 1 cbr 50 ------- 0 0.0 1.0 238 238
+ 2.478 0 1 cbr 50 ------- 0 0.0 1.0 239 239
- 2.478 0 1 cbr 50 ------- 0 0.0 1.0 239 239
+ 2.48 0 1 cbr 50 ------- 0 0.0 1.0 240 240
- 2.48 0 1 cbr 50 ------- 0 0.0 1.0 240 240
+ 2.482 0 1 cbr 50 ------- 0 0.0 1.0 241 241
- 2.482 0 1 cbr 50 ------- 0 0.0 1.0 241 241
+ 2.484 0 1 cbr 50 ------- 0 0.0 1.0 242 242
- 2.484 0 1 cbr 50 ------- 0 0.0 1.0 242 242
+ 2.486 0 1 cbr 50 ------- 0 0.0 1.0 243 243
- 2.486 0 1 cbr 50 ------- 0 0.0 1.0 243 243
+ 2.488 0 1 cbr 50 ------- 0 0.0 1.0 244 244
- 2.488 0 1 cbr 50 ------- 0 0.0 1.0 244 244
+ 2.49 0 1 cbr 50 ------- 0 0.0 1.0 245 245
- 2.49 0 1 cbr 50 ------- 0 0.0 1.0 245 245
+ 2.492 0 1 cbr 50 ------- 0 0.0 1.0 246 246
- 2.492 0 1 cbr 50 ------- 0 0.0 1.0 246 246
+ 2.494 0 1 cbr 50 ------- 0 0.0 1.0 247 247
- 2.494 0 1 cbr 50 ------- 0 0.0 1.0 247 247
+ 2.496 0 1 cbr 50 ------- 0 0.0 1.0 248 248
- 2.496 0 1 cbr 50 ------- 0 0.0 1.0 248 248
+ 2.498 0 1 cbr 50 ------- 0 0.0 1.0 249 249
- 2.498 0 1 cbr 50 ------- 0 0.0 1.0 249 249
+ 2.5 0 1 cbr 50 ------- 0 0.0 1.0 250 250
- 2.5 0 1 cbr 50 ------- 0 0.0 1.0 250 250
+ 2.502 0 1 cbr 50 ------- 0 0.0 1.0 251 251
- 2.502 0 1 cbr 50 ------- 0 0.0 1.0 251 251
+ 2.504 0 1 cbr 50 ------- 0 0.0 1.0 252 252
- 2.504 0 1 cbr 50 ------- 0 0.0 1.0 252 252
+ 2.506 0 1 cbr 50 ------- 0 0.0 1.0 253 253
- 2.506 0 1 cbr 50 ------- 0 0.0 1.0 253 253
+ 2.508 0 1 cbr 50 ------- 0 0.0 1.0 254 254
- 2.508 0 1 cbr 50 ------- 0 0.0 1.0 254 254
+ 2.51 0 1 cbr 50 ------- 0 0.0 1.0 255 255
- 2.51 0 1 cbr 50 ------- 0 0.0 1.0 255 255
+ 2.512 0 1 cbr 50 ------- 0 0.0 1.0 256 256
- 2.512 0 1 cbr 50 ------- 0 0.0 1.0 256 256
+ 2.514 0 1 cbr 50 ------- 0 0.0 1.0 257 257
- 2.514 0 1 cbr 50 ------- 0 0.0 1.0 257 257
+ 2.516 0 1 cbr 50 ------- 0 0.0 1.0 258 258
- 2.516 0 1 cbr 50 ------- 0 0.0 1.0 258 258
+ 2.518 0 1 cbr 50 ------- 0 0.0 1.0 259 259
- 2.518 0 1 cbr 50 ------- 0 0.0 1.0 259 259
+ 2.52 0 1 cbr 50 ------- 0 0.0 1.0 260 260
- 2.52 0 1 cbr 50 ------- 0 0.0 1.0 260 260
+ 2.522 0 1 cbr 50 ------- 0 0.0 1.0 261 261
- 2.522 0 1 cbr 50 ------- 0 0.0 1.0 261 261
+ 2.524 0 1 cbr 50 ------- 0 0.0 1.0 262 262
- 2.524 0 1 cbr 50 ------- 0 0.0 1.0 262 262
+ 2.526 0 1 cbr 50 ------- 0 0.0 1.0 263 263
- 2.526 0 1 cbr 50 ------- 0 0.0 1.0 263 263
+ 2.528 0 1 cbr 50 ------- 0 0.0 1.0 264 264
- 2.528 0 1 cbr 50 ------- 0 0.0 1.0 264 264
+ 2.53 0 1 cbr 50 ------- 0 0.0 1.0 265 265
- 2.53 0 1 cbr 50 ------- 0 0.0 1.0 265 265
+ 2.532 0 1 cbr 50 ------- 0 0.0 1.0 266 266
- 2.532 0 1 cbr 50 ------- 0 0.0 1.0 266 266
+ 2.534 0 1 cbr 50 ------- 0 0.0 1.0 267 267
- 2.534 0 1 cbr 50 ------- 0 0.0 1.0 267 267
+ 2.536 0 1 cbr 50 ------- 0 0.0 1.0 268 268
- 2.536 0 1 cbr 50 ------- 0 0.0 1.0 268 268
+ 2.538 0 1 cbr 50 ------- 0 0.0 1.0 269 269
- 2.538 0 1 cbr 50 ------- 0 0.0 1.0 269 269
+ 2.54 0 1 cbr 50 ------- 0 0.0 1.0 270 270
- 2.54 0 1 cbr 50 ------- 0 0.0 1.0 270 270
+ 2.542 0 1 cbr 50 ------- 0 0.0 1.0 271 271
- 2.542 0 1 cbr 50 ------- 0 0.0 1.0 271 271
+ 2.544 0 1 cbr 50 ------- 0 0.0 1.0 272 272
- 2.544 0 1 cbr 50 ------- 0 0.0 1.0 272 272
+ 2.546 0 1 cbr 50 ------- 0 0.0 1.0 273 273
- 2.546 0 1 cbr 50 ------- 0 0.0 1.0 273 273
+ 2.548 0 1 cbr 50 ------- 0 0.0 1.0 274 274
- 2.548 0 1 cbr 50 ------- 0 0.0 1.0 274 274
+ 2.55 0 1 cbr 50 ------- 0 0.0 1.0 275 275
- 2.55 0 1 cbr 50 ------- 0 0.0 1.0 275 275
+ 2.552 0 1 cbr 50 ------- 0 0.0 1.0 276 276
- 2.552 0 1 cbr 50 ------- 0 0.0 1.0 276 276
+ 2.554 0 1 cbr 50 ------- 0 0.0 1.0 277 277
- 2.554 0 1 cbr 50 ------- 0 0.0 1.0 277 277
+ 2.556 0 1 cbr 50 ------- 0 0.0 1.0 278 278
- 2.556 0 1 cbr 50 ------- 0 0.0 1.0 278 278
+ 2.558 0 1 cbr 50 ------- 0 0.0 1.0 279 279
- 2.558 0 1 cbr 50 ------- 0 0.0 1.0 279 279
+ 2.56 0 1 cbr 50 ------- 0 0.0 1.0 280 280
- 2.56 0 1 cbr 50 ------- 0 0.0 1.0 280 280
+ 2.562 0 1 cbr 50 ------- 0 0.0 1.0 281 281
- 2.562 0 1 cbr 50 ------- 0 0.0 1.0 281 281
+ 2.564 0 1 cbr 50 ------- 0 0.0 1.0 282 282
- 2.564 0 1 cbr 50 ------- 0 0.0 1.0 282 282
+ 2.566 0 1 cbr 50 ------- 0 0.0 1.0 283 283
- 2.566 0 1 cbr 50 ------- 0 0.0 1.0 283 283
+ 2.568 0 1 cbr 50 ------- 0 0.0 1.0 284 284
- 2.568 0 1 cbr 50 ------- 0 0.0 1.0 284 284
+ 2.57 0 1 cbr 50 ------- 0 0.0 1.0 285 285
- 2.57 0 1 cbr 50 ------- 0 0.0 1.0 285 285
+ 2.572 0 1 cbr 50 ------- 0 0.0 1.0 286 286
- 2.572 0 1 cbr 50 ------- 0 0.0 1.0 286 286
+ 2.574 0 1 cbr 50 ------- 0 0.0 1.0 287 287
- 2.574 0 1 cbr 50 ------- 0 0.0 1.0 287 287
+ 2.576 0 1 cbr 50 ------- 0 0.0 1.0 288 288
- 2.576 0 1 cbr 50 ------- 0 0.0 1.0 288 288
+ 2.578 0 1 cbr 50 ------- 0 0.0 1.0 289 289
- 2.578 0 1 cbr 50 ------- 0 0.0 1.0 289 289
+ 2.58 0 1 cbr 50 ------- 0 0.0 1.0 290 290
- 2.58 0 1 cbr 50 ------- 0 0.0 1.0 290 290
+ 2.582 0 1 cbr 50 ------- 0 0.0 1.0 291 291
- 2.582 0 1 cbr 50 ------- 0 0.0 1.0 291 291
+ 2.584 0 1 cbr 50 ------- 0 0.0 1.0 292 292
- 2.584 0 1 cbr 50 ------- 0 0.0 1.0 292 292
+ 2.586 0 1 cbr 50 ------- 0 0.0 1.0 293 293
- 2.586 0 1 cbr 50 ------- 0 0.0 1.0 293 293
+ 2.588 0 1 cbr 50 ------- 0 0.0 1.0 294 294
- 2.588 0 1 cbr 50 ------- 0 0.0 1.0 294 294
+ 2.59 0 1 cbr 50 ------- 0 0.0 1.0 295 295
- 2.59 0 1 cbr 50 ------- 0 0.0 1.0 295 295
+ 2.592 0 1 cbr 50 ------- 0 0.0 1.0 296 296
- 2.592 0 1 cbr 50 ------- 0 0.0 1.0 296 296
+ 2.594 0 1 cbr 50 ------- 0 0.0 1.0 297 297
- 2.594 0 1 cbr 50 ------- 0 0.0 1.0 297 297
+ 2.596 0 1 cbr 50 ------- 0 0.0 1.0 298 298
- 2.596 0 1 cbr 50 ------- 0 0.0 1.0 298 298
+ 2.598 0 1 cbr 50 ------- 0 0.0 1.0 299 299
- 2.598 0 1 cbr 50 ------- 0 0.0 1.0 299 299
+ 2.6 0 1 cbr 50 ------- 0 0.0 1.0 300 300
- 2.6 0 1 cbr 50 ------- 0 0.0 1.0 300 300
+ 2.602 0 1 cbr 50 ------- 0 0.0 1.0 301 301
- 2.602 0 1 cbr 50 ------- 0 0.0 1.0 301 301
+ 2.604 0 1 cbr 50 ------- 0 0.0 1.0 302 302
- 2.604 0 1 cbr 50 ------- 0 0.0 1.0 302 302
+ 2.606 0 1 cbr 50 ------- 0 0.0 1.0 303 303
- 2.606 0 1 cbr 50 ------- 0 0.0 1.0 303 303
+ 2.608 0 1 cbr 50 ------- 0 0.0 1.0 304 304
- 2.608 0 1 cbr 50 ------- 0 0.0 1.0 304 304
+ 2.61 0 1 cbr 50 ------- 0 0.0 1.0 305 305
- 2.61 0 1 cbr 50 ------- 0 0.0 1.0 305 305
+ 2.612 0 1 cbr 50 ------- 0 0.0 1.0 306 306
- 2.612 0 1 cbr 50 ------- 0 0.0 1.0 306 306
+ 2.614 0 1 cbr 50 ------- 0 0.0 1.0 307 307
- 2.614 0 1 cbr 50 ------- 0 0.0 1.0 307 307
+ 2.616 0 1 cbr 50 ------- 0 0.0 1.0 308 308
- 2.616 0 1 cbr 50 ------- 0 0.0 1.0 308 308
+ 2.618 0 1 cbr 50 ------- 0 0.0 1.0 309 309
- 2.618 0 1 cbr 50 ------- 0 0.0 1.0 309 309
+ 2.62 0 1 cbr 50 ------- 0 0.0 1.0 310 310
- 2.62 0 1 cbr 50 ------- 0 0.0 1.0 310 310
+ 2.622 0 1 cbr 50 ------- 0 0.0 1.0 311 311
- 2.622 0 1 cbr 50 ------- 0 0.0 1.0 311 311
+ 2.624 0 1 cbr 50 ------- 0 0.0 1.0 312 312
- 2.624 0 1 cbr 50 ------- 0 0.0 1.0 312 312
+ 2.626 0 1 cbr 50 ------- 0 0.0 1.0 313 313
- 2.626 0 1 cbr 50 ------- 0 0.0 1.0 313 313
+ 2.628 0 1 cbr 50 ------- 0 0.0 1.0 314 314
- 2.628 0 1 cbr 50 ------- 0 0.0 1.0 314 314
+ 2.63 0 1 cbr 50 ------- 0 0.0 1.0 315 315
- 2.63 0 1 cbr 50 ------- 0 0.0 1.0 315 315
+ 2.632 0 1 cbr 50 ------- 0 0.0 1.0 316 316
- 2.632 0 1 cbr 50 ------- 0 0.0 1.0 316 316
+ 2.634 0 1 cbr 50 ------- 0 0.0 1.0 317 317
- 2.634 0 1 cbr 50 ------- 0 0.0 1.0 317 317
+ 2.636 0 1 cbr 50 ------- 0 0.0 1.0 318 318
- 2.636 0 1 cbr 50 ------- 0 0.0 1.0 318 318
+ 2.638 0 1 cbr 50 ------- 0 0.0 1.0 319 319
- 2.638 0 1 cbr 50 ------- 0 0.0 1.0 319 319
+ 2.64 0 1 cbr 50 ------- 0 0.0 1.0 320 320
- 2.64 0 1 cbr 50 ------- 0 0.0 1.0 320 320
+ 2.642 0 1 cbr 50 ------- 0 0.0 1.0 321 321
- 2.642 0 1 cbr 50 ------- 0 0.0 1.0 321 321
+ 2.644 0 1 cbr 50 ------- 0 0.0 1.0 322 322
- 2.644 0 1 cbr 50 ------- 0 0.0 1.0 322 322
+ 2.646 0 1 cbr 50 ------- 0 0.0 1.0 323 323
- 2.646 0 1 cbr 50 ------- 0 0.0 1.0 323 323
+ 2.648 0 1 cbr 50 ------- 0 0.0 1.0 324 324
- 2.648 0 1 cbr 50 ------- 0 0.0 1.0 324 324
+ 2.65 0 1 cbr 50 ------- 0 0.0 1.0 325 325
- 2.65 0 1 cbr 50 ------- 0 0.0 1.0 325 325
+ 2.652 0 1 cbr 50 ------- 0 0.0 1.0 326 326
- 2.652 0 1 cbr 50 ------- 0 0.0 1.0 326 326
+ 2.654 0 1 cbr 50 ------- 0 0.0 1.0 327 327
- 2.654 0 1 cbr 50 ------- 0 0.0 1.0 327 327
+ 2.656 0 1 cbr 50 ------- 0 0.0 1.0 328 328
- 2.656 0 1 cbr 50 ------- 0 0.0 1.0 328 328
+ 2.658 0 1 cbr 50 ------- 0 0.0 1.0 329 329
- 2.658 0 1 cbr 50 ------- 0 0.0 1.0 329 329
+ 2.66 0 1 cbr 50 ------- 0 0.0 1.0 330 330
- 2.66 0 1 cbr 50 ------- 0 0.0 1.0 330 330
+ 2.662 0 1 cbr 50 ------- 0 0.0 1.0 331 331
- 2.662 0 1 cbr 50 ------- 0 0.0 1.0 331 331
+ 2.664 0 1 cbr 50 ------- 0 0.0 1.0 332 332
- 2.664 0 1 cbr 50 ------- 0 0.0 1.0 332 332
+ 2.666 0 1 cbr 50 ------- 0 0.0 1.0 333 333
- 2.666 0 1 cbr 50 ------- 0 0.0 1.0 333 333
+ 2.668 0 1 cbr 50 ------- 0 0.0 1.0 334 334
- 2.668 0 1 cbr 50 ------- 0 0.0 1.0 334 334
+ 2.67 0 1 cbr 50 ------- 0 0.0 1.0 335 335
- 2.67 0 1 cbr 50 ------- 0 0.0 1.0 335 335
+ 2.672 0 1 cbr 50 ------- 0 0.0 1.0 336 336
- 2.672 0 1 cbr 50 ------- 0 0.0 1.0 336 336
+ 2.674 0 1 cbr 50 ------- 0 0.0 1.0 337 337
- 2.674 0 1 cbr 50 ------- 0 0.0 1.0 337 337
+ 2.676 0 1 cbr 50 ------- 0 0.0 1.0 338 338
- 2.676 0 1 cbr 50 ------- 0 0.0 1.0 338 338
+ 2.678 0 1 cbr 50 ------- 0 0.0 1.0 339 339