+ 1 0 1 cbr 50 ------- 0 0.0 1.0 0 0
- 1 0 1 cbr 50 ------- 0 0.0 1.0 0 0
r 1.0012 0 1 cbr 50 ------- 0 0.0 1.0 0 0
+ 1.002 0 1 cbr 50 ------- 0 0.0 1.0 1 1
- 1.002 0 1 cbr 50 ------- 0 0.0 1.0 1 1
r 1.0032 0 1 cbr 50 ------- 0 0.0 1.0 1 1
+ 1.004 0 1 cbr 50 ------- 0 0.0 1.0 2 2
- 1.004 0 1 cbr 50 ------- 0 0.0 1.0 2 2
r 1.0052 0 1 cbr 50 ------- 0 0.0 1.0 2 2
+ 1.006 0 1 cbr 50 ------- 0 0.0 1.0 3 3
- 1.006 0 1 cbr 50 ------- 0 0.0 1.0 3 3
r 1.0072 0 1 cbr 50 ------- 0 0.0 1.0 3 3
+ 1.008 0 1 cbr 50 ------- 0 0.0 1.0 4 4
- 1.008 0 1 cbr 50 ------- 0 0.0 1.0 4 4
r 1.0092 0 1 cbr 50 ------- 0 0.0 1.0 4 4
+ 1.01 0 1 cbr 50 ------- 0 0.0 1.0 5 5
- 1.01 0 1 cbr 50 ------- 0 0.0 1.0 5 5
r 1.0112 0 1 cbr 50 ------- 0 0.0 1.0 5 5
+ 1.012 0 1 cbr 50 ------- 0 0.0 1.0 6 6
- 1.012 0 1 cbr 50 ------- 0 0.0 1.0 6 6
r 1.0132 0 1 cbr 50 ------- 0 0.0 1.0 6 6
+ 1.014 0 1 cbr 50 ------- 0 0.0 1.0 7 7
- 1.014 0 1 cbr 50 ------- 0 0.0 1.0 7 7
r 1.0152 0 1 cbr 50 ------- 0 0.0 1.0 7 7
+ 1.016 0 1 cbr 50 ------- 0 0.0 1.0 8 8
- 1.016 0 1 cbr 50 ------- 0 0.0 1.0 8 8
r 1.0172 0 1 cbr 50 ------- 0 0.0 1.0 8 8
+ 1.018 0 1 cbr 50 ------- 0 0.0 1.0 9 9
- 1.018 0 1 cbr 50 ------- 0 0.0 1.0 9 9
r 1.0192 0 1 cbr 50 ------- 0 0.0 1.0 9 9
+ 1.02 0 1 cbr 50 ------- 0 0.0 1.0 10 10
- 1.02 0 1 cbr 50 ------- 0 0.0 1.0 10 10
r 1.0212 0 1 cbr 50 ------- 0 0.0 1.0 10 10
+ 1.022 0 1 cbr 50 ------- 0 0.0 1.0 11 11
- 1.022 0 1 cbr 50 ------- 0 0.0 1.0 11 11
r 1.0232 0 1 cbr 50 ------- 0 0.0 1.0 11 11
+ 1.024 0 1 cbr 50 ------- 0 0.0 1.0 12 12
- 1.024 0 1 cbr 50 ------- 0 0.0 1.0 12 12
r 1.0252 0 1 cbr 50 ------- 0 0.0 1.0 12 12
+ 1.026 0 1 cbr 50 ------- 0 0.0 1.0 13 13
- 1.026 0 1 cbr 50 ------- 0 0.0 1.0 13 13
r 1.0272 0 1 cbr 50 ------- 0 0.0 1.0 13 13
+ 1.028 0 1 cbr 50 ------- 0 0.0 1.0 14 14
- 1.028 0 1 cbr 50 ------- 0 0.0 1.0 14 14
r 1.0292 0 1 cbr 50 ------- 0 0.0 1.0 14 14
+ 1.03 0 1 cbr 50 ------- 0 0.0 1.0 15 15
- 1.03 0 1 cbr 50 ------- 0 0.0 1.0 15 15
r 1.0312 0 1 cbr 50 ------- 0 0.0 1.0 15 15
+ 1.032 0 1 cbr 50 ------- 0 0.0 1.0 16 16
- 1.032 0 1 cbr 50 ------- 0 0.0 1.0 16 16
r 1.0332 0 1 cbr 50 ------- 0 0.0 1.0 16 16
+ 1.034 0 1 cbr 50 ------- 0 0.0 1.0 17 17
- 1.034 0 1 cbr 50 ------- 0 0.0 1.0 17 17
r 1.0352 0 1 cbr 50 ------- 0 0.0 1.0 17 17
+ 1.036 0 1 cbr 50 ------- 0 0.0 1.0 18 18
- 1.036 0 1 cbr 50 ------- 0 0.0 1.0 18 18
r 1.0372 0 1 cbr 50 ------- 0 0.0 1.0 18 18
+ 1.038 0 1 cbr 50 ------- 0 0.0 1.0 19 19
- 1.038 0 1 cbr 50 ------- 0 0.0 1.0 19 19
r 1.0392 0 1 cbr 50 ------- 0 0.0 1.0 19 19
+ 1.04 0 1 cbr 50 ------- 0 0.0 1.0 20 20
- 1.04 0 1 cbr 50 ------- 0 0.0 1.0 20 20
r 1.0412 0 1 cbr 50 ------- 0 0.0 1.0 20 20
+ 1.042 0 1 cbr 50 ------- 0 0.0 1.0 21 21
- 1.042 0 1 cbr 50 ------- 0 0.0 1.0 21 21
r 1.0432 0 1 cbr 50 ------- 0 0.0 1.0 21 21
+ 1.044 0 1 cbr 50 ------- 0 0.0 1.0 22 22
- 1.044 0 1 cbr 50 ------- 0 0.0 1.0 22 22
r 1.0452 0 1 cbr 50 ------- 0 0.0 1.0 22 22
+ 1.046 0 1 cbr 50 ------- 0 0.0 1.0 23 23
- 1.046 0 1 cbr 50 ------- 0 0.0 1.0 23 23
r 1.0472 0 1 cbr 50 ------- 0 0.0 1.0 23 23
+ 1.048 0 1 cbr 50 ------- 0 0.0 1.0 24 24
- 1.048 0 1 cbr 50 ------- 0 0.0 1.0 24 24
r 1.0492 0 1 cbr 50 ------- 0 0.0 1.0 24 24
+ 1.05 0 1 cbr 50 ------- 0 0.0 1.0 25 25
- 1.05 0 1 cbr 50 ------- 0 0.0 1.0 25 25
r 1.0512 0 1 cbr 50 ------- 0 0.0 1.0 25 25
+ 1.052 0 1 cbr 50 ------- 0 0.0 1.0 26 26
- 1.052 0 1 cbr 50 ------- 0 0.0 1.0 26 26
r 1.0532 0 1 cbr 50 ------- 0 0.0 1.0 26 26
+ 1.054 0 1 cbr 50 ------- 0 0.0 1.0 27 27
- 1.054 0 1 cbr 50 ------- 0 0.0 1.0 27 27
r 1.0552 0 1 cbr 50 ------- 0 0.0 1.0 27 27
+ 1.056 0 1 cbr 50 ------- 0 0.0 1.0 28 28
- 1.056 0 1 cbr 50 ------- 0 0.0 1.0 28 28
r 1.0572 0 1 cbr 50 ------- 0 0.0 1.0 28 28
+ 1.058 0 1 cbr 50 ------- 0 0.0 1.0 29 29
- 1.058 0 1 cbr 50 ------- 0 0.0 1.0 29 29
r 1.0592 0 1 cbr 50 ------- 0 0.0 1.0 29 29
+ 1.06 0 1 cbr 50 ------- 0 0.0 1.0 30 30
- 1.06 0 1 cbr 50 ------- 0 0.0 1.0 30 30
r 1.0612 0 1 cbr 50 ------- 0 0.0 1.0 30 30
+ 1.062 0 1 cbr 50 ------- 0 0.0 1.0 31 31
- 1.062 0 1 cbr 50 ------- 0 0.0 1.0 31 31
r 1.0632 0 1 cbr 50 ------- 0 0.0 1.0 31 31
+ 1.064 0 1 cbr 50 ------- 0 0.0 1.0 32 32
- 1.064 0 1 cbr 50 ------- 0 0.0 1.0 32 32
r 1.0652 0 1 cbr 50 ------- 0 0.0 1.0 32 32
+ 1.066 0 1 cbr 50 ------- 0 0.0 1.0 33 33
- 1.066 0 1 cbr 50 ------- 0 0.0 1.0 33 33
r 1.0672 0 1 cbr 50 ------- 0 0.0 1.0 33 33
+ 1.068 0 1 cbr 50 ------- 0 0.0 1.0 34 34
- 1.068 0 1 cbr 50 ------- 0 0.0 1.0 34 34
r 1.0692 0 1 cbr 50 ------- 0 0.0 1.0 34 34
+ 1.07 0 1 cbr 50 ------- 0 0.0 1.0 35 35
- 1.07 0 1 cbr 50 ------- 0 0.0 1.0 35 35
r 1.0712 0 1 cbr 50 ------- 0 0.0 1.0 35 35
+ 1.072 0 1 cbr 50 ------- 0 0.0 1.0 36 36
- 1.072 0 1 cbr 50 ------- 0 0.0 1.0 36 36
r 1.0732 0 1 cbr 50 ------- 0 0.0 1.0 36 36
+ 1.074 0 1 cbr 50 ------- 0 0.0 1.0 37 37
- 1.074 0 1 cbr 50 ------- 0 0.0 1.0 37 37
r 1.0752 0 1 cbr 50 ------- 0 0.0 1.0 37 37
+ 1.076 0 1 cbr 50 ------- 0 0.0 1.0 38 38
- 1.076 0 1 cbr 50 ------- 0 0.0 1.0 38 38
r 1.0772 0 1 cbr 50 ------- 0 0.0 1.0 38 38
+ 1.078 0 1 cbr 50 ------- 0 0.0 1.0 39 39
- 1.078 0 1 cbr 50 ------- 0 0.0 1.0 39 39
r 1.0792 0 1 cbr 50 ------- 0 0.0 1.0 39 39
+ 1.08 0 1 cbr 50 ------- 0 0.0 1.0 40 40
- 1.08 0 1 cbr 50 ------- 0 0.0 1.0 40 40
r 1.0812 0 1 cbr 50 ------- 0 0.0 1.0 40 40
+ 1.082 0 1 cbr 50 ------- 0 0.0 1.0 41 41
- 1.082 0 1 cbr 50 ------- 0 0.0 1.0 41 41
r 1.0832 0 1 cbr 50 ------- 0 0.0 1.0 41 41
+ 1.084 0 1 cbr 50 ------- 0 0.0 1.0 42 42
- 1.084 0 1 cbr 50 ------- 0 0.0 1.0 42 42
r 1.0852 0 1 cbr 50 ------- 0 0.0 1.0 42 42
+ 1.086 0 1 cbr 50 ------- 0 0.0 1.0 43 43
- 1.086 0 1 cbr 50 ------- 0 0.0 1.0 43 43
r 1.0872 0 1 cbr 50 ------- 0 0.0 1.0 43 43
+ 1.088 0 1 cbr 50 ------- 0 0.0 1.0 44 44
- 1.088 0 1 cbr 50 ------- 0 0.0 1.0 44 44
r 1.0892 0 1 cbr 50 ------- 0 0.0 1.0 44 44
+ 1.09 0 1 cbr 50 ------- 0 0.0 1.0 45 45
- 1.09 0 1 cbr 50 ------- 0 0.0 1.0 45 45
r 1.0912 0 1 cbr 50 ------- 0 0.0 1.0 45 45
+ 1.092 0 1 cbr 50 ------- 0 0.0 1.0 46 46
- 1.092 0 1 cbr 50 ------- 0 0.0 1.0 46 46
r 1.0932 0 1 cbr 50 ------- 0 0.0 1.0 46 46
+ 1.094 0 1 cbr 50 ------- 0 0.0 1.0 47 47
- 1.094 0 1 cbr 50 ------- 0 0.0 1.0 47 47
r 1.0952 0 1 cbr 50 ------- 0 0.0 1.0 47 47
+ 1.096 0 1 cbr 50 ------- 0 0.0 1.0 48 48
- 1.096 0 1 cbr 50 ------- 0 0.0 1.0 48 48
r 1.0972 0 1 cbr 50 ------- 0 0.0 1.0 48 48
+ 1.098 0 1 cbr 50 ------- 0 0.0 1.0 49 49
- 1.098 0 1 cbr 50 ------- 0 0.0 1.0 49 49
r 1.0992 0 1 cbr 50 ------- 0 0.0 1.0 49 49
+ 1.1 0 1 cbr 50 ------- 0 0.0 1.0 50 50
- 1.1 0 1 cbr 50 ------- 0 0.0 1.0 50 50
r 1.1012 0 1 cbr 50 ------- 0 0.0 1.0 50 50
+ 1.102 0 1 cbr 50 ------- 0 0.0 1.0 51 51
- 1.102 0 1 cbr 50 ------- 0 0.0 1.0 51 51
r 1.1032 0 1 cbr 50 ------- 0 0.0 1.0 51 51
+ 1.104 0 1 cbr 50 ------- 0 0.0 1.0 52 52
- 1.104 0 1 cbr 50 ------- 0 0.0 1.0 52 52
r 1.1052 0 1 cbr 50 ------- 0 0.0 1.0 52 52
+ 1.106 0 1 cbr 50 ------- 0 0.0 1.0 53 53
- 1.106 0 1 cbr 50 ------- 0 0.0 1.0 53 53
r 1.1072 0 1 cbr 50 ------- 0 0.0 1.0 53 53
+ 1.108 0 1 cbr 50 ------- 0 0.0 1.0 54 54
- 1.108 0 1 cbr 50 ------- 0 0.0 1.0 54 54
r 1.1092 0 1 cbr 50 ------- 0 0.0 1.0 54 54
+ 1.11 0 1 cbr 50 ------- 0 0.0 1.0 55 55
- 1.11 0 1 cbr 50 ------- 0 0.0 1.0 55 55
r 1.1112 0 1 cbr 50 ------- 0 0.0 1.0 55 55
+ 1.112 0 1 cbr 50 ------- 0 0.0 1.0 56 56
- 1.112 0 1 cbr 50 ------- 0 0.0 1.0 56 56
r 1.1132 0 1 cbr 50 ------- 0 0.0 1.0 56 56
+ 1.114 0 1 cbr 50 ------- 0 0.0 1.0 57 57
- 1.114 0 1 cbr 50 ------- 0 0.0 1.0 57 57
r 1.1152 0 1 cbr 50 ------- 0 0.0 1.0 57 57
+ 1.116 0 1 cbr 50 ------- 0 0.0 1.0 58 58
- 1.116 0 1 cbr 50 ------- 0 0.0 1.0 58 58
r 1.1172 0 1 cbr 50 ------- 0 0.0 1.0 58 58
+ 1.118 0 1 cbr 50 ------- 0 0.0 1.0 59 59
- 1.118 0 1 cbr 50 ------- 0 0.0 1.0 59 59
r 1.1192 0 1 cbr 50 ------- 0 0.0 1.0 59 59
+ 1.12 0 1 cbr 50 ------- 0 0.0 1.0 60 60
- 1.12 0 1 cbr 50 ------- 0 0.0 1.0 60 60
r 1.1212 0 1 cbr 50 ------- 0 0.0 1.0 60 60
+ 1.122 0 1 cbr 50 ------- 0 0.0 1.0 61 61
- 1.122 0 1 cbr 50 ------- 0 0.0 1.0 61 61
r 1.1232 0 1 cbr 50 ------- 0 0.0 1.0 61 61
+ 1.124 0 1 cbr 50 ------- 0 0.0 1.0 62 62
- 1.124 0 1 cbr 50 ------- 0 0.0 1.0 62 62
r 1.1252 0 1 cbr 50 ------- 0 0.0 1.0 62 62
+ 1.126 0 1 cbr 50 ------- 0 0.0 1.0 63 63
- 1.126 0 1 cbr 50 ------- 0 0.0 1.0 63 63
r 1.1272 0 1 cbr 50 ------- 0 0.0 1.0 63 63
+ 1.128 0 1 cbr 50 ------- 0 0.0 1.0 64 64
- 1.128 0 1 cbr 50 ------- 0 0.0 1.0 64 64
r 1.1292 0 1 cbr 50 ------- 0 0.0 1.0 64 64
+ 1.13 0 1 cbr 50 ------- 0 0.0 1.0 65 65
- 1.13 0 1 cbr 50 ------- 0 0.0 1.0 65 65
r 1.1312 0 1 cbr 50 ------- 0 0.0 1.0 65 65
+ 1.132 0 1 cbr 50 ------- 0 0.0 1.0 66 66
- 1.132 0 1 cbr 50 ------- 0 0.0 1.0 66 66
r 1.1332 0 1 cbr 50 ------- 0 0.0 1.0 66 66
+ 1.134 0 1 cbr 50 ------- 0 0.0 1.0 67 67
- 1.134 0 1 cbr 50 ------- 0 0.0 1.0 67 67
r 1.1352 0 1 cbr 50 ------- 0 0.0 1.0 67 67
+ 1.136 0 1 cbr 50 ------- 0 0.0 1.0 68 68
- 1.136 0 1 cbr 50 ------- 0 0.0 1.0 68 68
r 1.1372 0 1 cbr 50 ------- 0 0.0 1.0 68 68
+ 1.138 0 1 cbr 50 ------- 0 0.0 1.0 69 69
- 1.138 0 1 cbr 50 ------- 0 0.0 1.0 69 69
r 1.1392 0 1 cbr 50 ------- 0 0.0 1.0 69 69
+ 1.14 0 1 cbr 50 ------- 0 0.0 1.0 70 70
- 1.14 0 1 cbr 50 ------- 0 0.0 1.0 70 70
r 1.1412 0 1 cbr 50 ------- 0 0.0 1.0 70 70
+ 1.142 0 1 cbr 50 ------- 0 0.0 1.0 71 71
- 1.142 0 1 cbr 50 ------- 0 0.0 1.0 71 71
r 1.1432 0 1 cbr 50 ------- 0 0.0 1.0 71 71
+ 1.144 0 1 cbr 50 ------- 0 0.0 1.0 72 72
- 1.144 0 1 cbr 50 ------- 0 0.0 1.0 72 72
r 1.1452 0 1 cbr 50 ------- 0 0.0 1.0 72 72
+ 1.146 0 1 cbr 50 ------- 0 0.0 1.0 73 73
- 1.146 0 1 cbr 50 ------- 0 0.0 1.0 73 73
r 1.1472 0 1 cbr 50 ------- 0 0.0 1.0 73 73
+ 1.148 0 1 cbr 50 ------- 0 0.0 1.0 74 74
- 1.148 0 1 cbr 50 ------- 0 0.0 1.0 74 74
r 1.1492 0 1 cbr 50 ------- 0 0.0 1.0 74 74
+ 1.15 0 1 cbr 50 ------- 0 0.0 1.0 75 75
- 1.15 0 1 cbr 50 ------- 0 0.0 1.0 75 75
r 1.1512 0 1 cbr 50 ------- 0 0.0 1.0 75 75
+ 1.152 0 1 cbr 50 ------- 0 0.0 1.0 76 76
- 1.152 0 1 cbr 50 ------- 0 0.0 1.0 76 76
r 1.1532 0 1 cbr 50 ------- 0 0.0 1.0 76 76
+ 1.154 0 1 cbr 50 ------- 0 0.0 1.0 77 77
- 1.154 0 1 cbr 50 ------- 0 0.0 1.0 77 77
r 1.1552 0 1 cbr 50 ------- 0 0.0 1.0 77 77
+ 1.156 0 1 cbr 50 ------- 0 0.0 1.0 78 78
- 1.156 0 1 cbr 50 ------- 0 0.0 1.0 78 78
r 1.1572 0 1 cbr 50 ------- 0 0.0 1.0 78 78
+ 1.158 0 1 cbr 50 ------- 0 0.0 1.0 79 79
- 1.158 0 1 cbr 50 ------- 0 0.0 1.0 79 79
r 1.1592 0 1 cbr 50 ------- 0 0.0 1.0 79 79
+ 1.16 0 1 cbr 50 ------- 0 0.0 1.0 80 80
- 1.16 0 1 cbr 50 ------- 0 0.0 1.0 80 80
r 1.1612 0 1 cbr 50 ------- 0 0.0 1.0 80 80
+ 1.162 0 1 cbr 50 ------- 0 0.0 1.0 81 81
- 1.162 0 1 cbr 50 ------- 0 0.0 1.0 81 81
r 1.1632 0 1 cbr 50 ------- 0 0.0 1.0 81 81
+ 1.164 0 1 cbr 50 ------- 0 0.0 1.0 82 82
- 1.164 0 1 cbr 50 ------- 0 0.0 1.0 82 82
r 1.1652 0 1 cbr 50 ------- 0 0.0 1.0 82 82
+ 1.166 0 1 cbr 50 ------- 0 0.0 1.0 83 83
- 1.166 0 1 cbr 50 ------- 0 0.0 1.0 83 83
r 1.1672 0 1 cbr 50 ------- 0 0.0 1.0 83 83
+ 1.168 0 1 cbr 50 ------- 0 0.0 1.0 84 84
- 1.168 0 1 cbr 50 ------- 0 0.0 1.0 84 84
r 1.1692 0 1 cbr 50 ------- 0 0.0 1.0 84 84
+ 1.17 0 1 cbr 50 ------- 0 0.0 1.0 85 85
- 1.17 0 1 cbr 50 ------- 0 0.0 1.0 85 85
r 1.1712 0 1 cbr 50 ------- 0 0.0 1.0 85 85
+ 1.172 0 1 cbr 50 ------- 0 0.0 1.0 86 86
- 1.172 0 1 cbr 50 ------- 0 0.0 1.0 86 86
r 1.1732 0 1 cbr 50 ------- 0 0.0 1.0 86 86
+ 1.174 0 1 cbr 50 ------- 0 0.0 1.0 87 87
- 1.174 0 1 cbr 50 ------- 0 0.0 1.0 87 87
r 1.1752 0 1 cbr 50 ------- 0 0.0 1.0 87 87
+ 1.176 0 1 cbr 50 ------- 0 0.0 1.0 88 88
- 1.176 0 1 cbr 50 ------- 0 0.0 1.0 88 88
r 1.1772 0 1 cbr 50 ------- 0 0.0 1.0 88 88
+ 1.178 0 1 cbr 50 ------- 0 0.0 1.0 89 89
- 1.178 0 1 cbr 50 ------- 0 0.0 1.0 89 89
r 1.1792 0 1 cbr 50 ------- 0 0.0 1.0 89 89
+ 1.18 0 1 cbr 50 ------- 0 0.0 1.0 90 90
- 1.18 0 1 cbr 50 ------- 0 0.0 1.0 90 90
r 1.1812 0 1 cbr 50 ------- 0 0.0 1.0 90 90
+ 1.182 0 1 cbr 50 ------- 0 0.0 1.0 91 91
- 1.182 0 1 cbr 50 ------- 0 0.0 1.0 91 91
r 1.1832 0 1 cbr 50 ------- 0 0.0 1.0 91 91
+ 1.184 0 1 cbr 50 ------- 0 0.0 1.0 92 92
- 1.184 0 1 cbr 50 ------- 0 0.0 1.0 92 92
r 1.1852 0 1 cbr 50 ------- 0 0.0 1.0 92 92
+ 1.186 0 1 cbr 50 ------- 0 0.0 1.0 93 93
- 1.186 0 1 cbr 50 ------- 0 0.0 1.0 93 93
r 1.1872 0 1 cbr 50 ------- 0 0.0 1.0 93 93
+ 1.188 0 1 cbr 50 ------- 0 0.0 1.0 94 94
- 1.188 0 1 cbr 50 ------- 0 0.0 1.0 94 94
r 1.1892 0 1 cbr 50 ------- 0 0.0 1.0 94 94
+ 1.19 0 1 cbr 50 ------- 0 0.0 1.0 95 95
- 1.19 0 1 cbr 50 ------- 0 0.0 1.0 95 95
r 1.1912 0 1 cbr 50 ------- 0 0.0 1.0 95 95
+ 1.192 0 1 cbr 50 ------- 0 0.0 1.0 96 96
- 1.192 0 1 cbr 50 ------- 0 0.0 1.0 96 96
r 1.1932 0 1 cbr 50 ------- 0 0.0 1.0 96 96
+ 1.194 0 1 cbr 50 ------- 0 0.0 1.0 97 97
- 1.194 0 1 cbr 50 ------- 0 0.0 1.0 97 97
r 1.1952 0 1 cbr 50 ------- 0 0.0 1.0 97 97
+ 1.196 0 1 cbr 50 ------- 0 0.0 1.0 98 98
- 1.196 0 1 cbr 50 ------- 0 0.0 1.0 98 98
r 1.1972 0 1 cbr 50 ------- 0 0.0 1.0 98 98
+ 1.198 0 1 cbr 50 ------- 0 0.0 1.0 99 99
- 1.198 0 1 cbr 50 ------- 0 0.0 1.0 99 99
r 1.1992 0 1 cbr 50 ------- 0 0.0 1.0 99 99
+ 1.2 0 1 cbr 50 ------- 0 0.0 1.0 100 100
- 1.2 0 1 cbr 50 ------- 0 0.0 1.0 100 100
r 1.2012 0 1 cbr 50 ------- 0 0.0 1.0 100 100
+ 1.202 0 1 cbr 50 ------- 0 0.0 1.0 101 101
- 1.202 0 1 cbr 50 ------- 0 0.0 1.0 101 101
r 1.2032 0 1 cbr 50 ------- 0 0.0 1.0 101 101
+ 1.204 0 1 cbr 50 ------- 0 0.0 1.0 102 102
- 1.204 0 1 cbr 50 ------- 0 0.0 1.0 102 102
r 1.2052 0 1 cbr 50 ------- 0 0.0 1.0 102 102
+ 1.206 0 1 cbr 50 ------- 0 0.0 1.0 103 103
- 1.206 0 1 cbr 50 ------- 0 0.0 1.0 103 103
r 1.2072 0 1 cbr 50 ------- 0 0.0 1.0 103 103
+ 1.208 0 1 cbr 50 ------- 0 0.0 1.0 104 104
- 1.208 0 1 cbr 50 ------- 0 0.0 1.0 104 104
r 1.2092 0 1 cbr 50 ------- 0 0.0 1.0 104 104
+ 1.21 0 1 cbr 50 ------- 0 0.0 1.0 105 105
- 1.21 0 1 cbr 50 ------- 0 0.0 1.0 105 105
r 1.2112 0 1 cbr 50 ------- 0 0.0 1.0 105 105
+ 1.212 0 1 cbr 50 ------- 0 0.0 1.0 106 106
- 1.212 0 1 cbr 50 ------- 0 0.0 1.0 106 106
r 1.2132 0 1 cbr 50 ------- 0 0.0 1.0 106 106
+ 1.214 0 1 cbr 50 ------- 0 0.0 1.0 107 107
- 1.214 0 1 cbr 50 ------- 0 0.0 1.0 107 107
r 1.2152 0 1 cbr 50 ------- 0 0.0 1.0 107 107
+ 1.216 0 1 cbr 50 ------- 0 0.0 1.0 108 108
- 1.216 0 1 cbr 50 ------- 0 0.0 1.0 108 108
r 1.2172 0 1 cbr 50 ------- 0 0.0 1.0 108 108
+ 1.218 0 1 cbr 50 ------- 0 0.0 1.0 109 109
- 1.218 0 1 cbr 50 ------- 0 0.0 1.0 109 109
r 1.2192 0 1 cbr 50 ------- 0 0.0 1.0 109 109
+ 1.22 0 1 cbr 50 ------- 0 0.0 1.0 110 110
- 1.22 0 1 cbr 50 ------- 0 0.0 1.0 110 110
r 1.2212 0 1 cbr 50 ------- 0 0.0 1.0 110 110
+ 1.222 0 1 cbr 50 ------- 0 0.0 1.0 111 111
- 1.222 0 1 cbr 50 ------- 0 0.0 1.0 111 111
r 1.2232 0 1 cbr 50 ------- 0 0.0 1.0 111 111
+ 1.224 0 1 cbr 50 ------- 0 0.0 1.0 112 112
- 1.224 0 1 cbr 50 ------- 0 0.0 1.0 112 112
r 1.2252 0 1 cbr 50 ------- 0 0.0 1.0 112 112
+ 1.226 0 1 cbr 50 ------- 0 0.0 1.0 113 113
- 1.226 0 1 cbr 50 ------- 0 0.0 1.0 113 113
r 1.2272 0 1 cbr 50 ------- 0 0.0 1.0 113 113
+ 1.228 0 1 cbr 50 ------- 0 0.0 1.0 114 114
- 1.228 0 1 cbr 50 ------- 0 0.0 1.0 114 114
r 1.2292 0 1 cbr 50 ------- 0 0.0 1.0 114 114
+ 1.23 0 1 cbr 50 ------- 0 0.0 1.0 115 115
- 1.23 0 1 cbr 50 ------- 0 0.0 1.0 115 115
r 1.2312 0 1 cbr 50 ------- 0 0.0 1.0 115 115
+ 1.232 0 1 cbr 50 ------- 0 0.0 1.0 116 116
- 1.232 0 1 cbr 50 ------- 0 0.0 1.0 116 116
r 1.2332 0 1 cbr 50 ------- 0 0.0 1.0 116 116
+ 1.234 0 1 cbr 50 ------- 0 0.0 1.0 117 117
- 1.234 0 1 cbr 50 ------- 0 0.0 1.0 117 117
r 1.2352 0 1 cbr 50 ------- 0 0.0 1.0 117 117
+ 1.236 0 1 cbr 50 ------- 0 0.0 1.0 118 118
- 1.236 0 1 cbr 50 ------- 0 0.0 1.0 118 118
r 1.2372 0 1 cbr 50 ------- 0 0.0 1.0 118 118
+ 1.238 0 1 cbr 50 ------- 0 0.0 1.0 119 119
- 1.238 0 1 cbr 50 ------- 0 0.0 1.0 119 119
r 1.2392 0 1 cbr 50 ------- 0 0.0 1.0 119 119
+ 1.24 0 1 cbr 50 ------- 0 0.0 1.0 120 120
- 1.24 0 1 cbr 50 ------- 0 0.0 1.0 120 120
r 1.2412 0 1 cbr 50 ------- 0 0.0 1.0 120 120
+ 1.242 0 1 cbr 50 ------- 0 0.0 1.0 121 121
- 1.242 0 1 cbr 50 ------- 0 0.0 1.0 121 121
r 1.2432 0 1 cbr 50 ------- 0 0.0 1.0 121 121
+ 1.244 0 1 cbr 50 ------- 0 0.0 1.0 122 122
- 1.244 0 1 cbr 50 ------- 0 0.0 1.0 122 122
r 1.2452 0 1 cbr 50 ------- 0 0.0 1.0 122 122
+ 1.246 0 1 cbr 50 ------- 0 0.0 1.0 123 123
- 1.246 0 1 cbr 50 ------- 0 0.0 1.0 123 123
r 1.2472 0 1 cbr 50 ------- 0 0.0 1.0 123 123
+ 1.248 0 1 cbr 50 ------- 0 0.0 1.0 124 124
- 1.248 0 1 cbr 50 ------- 0 0.0 1.0 124 124
r 1.2492 0 1 cbr 50 ------- 0 0.0 1.0 124 124
+ 1.25 0 1 cbr 50 ------- 0 0.0 1.0 125 125
- 1.25 0 1 cbr 50 ------- 0 0.0 1.0 125 125
r 1.2512 0 1 cbr 50 ------- 0 0.0 1.0 125 125
+ 1.252 0 1 cbr 50 ------- 0 0.0 1.0 126 126
- 1.252 0 1 cbr 50 ------- 0 0.0 1.0 126 126
r 1.2532 0 1 cbr 50 ------- 0 0.0 1.0 126 126
+ 1.254 0 1 cbr 50 ------- 0 0.0 1.0 127 127
- 1.254 0 1 cbr 50 ------- 0 0.0 1.0 127 127
r 1.2552 0 1 cbr 50 ------- 0 0.0 1.0 127 127
+ 1.256 0 1 cbr 50 ------- 0 0.0 1.0 128 128
- 1.256 0 1 cbr 50 ------- 0 0.0 1.0 128 128
r 1.2572 0 1 cbr 50 ------- 0 0.0 1.0 128 128
+ 1.258 0 1 cbr 50 ------- 0 0.0 1.0 129 129
- 1.258 0 1 cbr 50 ------- 0 0.0 1.0 129 129
r 1.2592 0 1 cbr 50 ------- 0 0.0 1.0 129 129
+ 1.26 0 1 cbr 50 ------- 0 0.0 1.0 130 130
- 1.26 0 1 cbr 50 ------- 0 0.0 1.0 130 130
r 1.2612 0 1 cbr 50 ------- 0 0.0 1.0 130 130
+ 1.262 0 1 cbr 50 ------- 0 0.0 1.0 131 131
- 1.262 0 1 cbr 50 ------- 0 0.0 1.0 131 131
r 1.2632 0 1 cbr 50 ------- 0 0.0 1.0 131 131
+ 1.264 0 1 cbr 50 ------- 0 0.0 1.0 132 132
- 1.264 0 1 cbr 50 ------- 0 0.0 1.0 132 132
r 1.2652 0 1 cbr 50 ------- 0 0.0 1.0 132 132
+ 1.266 0 1 cbr 50 ------- 0 0.0 1.0 133 133
- 1.266 0 1 cbr 50 ------- 0 0.0 1.0 133 133
r 1.2672 0 1 cbr 50 ------- 0 0.0 1.0 133 133
+ 1.268 0 1 cbr 50 ------- 0 0.0 1.0 134 134
- 1.268 0 1 cbr 50 ------- 0 0.0 1.0 134 134
r 1.2692 0 1 cbr 50 ------- 0 0.0 1.0 134 134
+ 1.27 0 1 cbr 50 ------- 0 0.0 1.0 135 135
- 1.27 0 1 cbr 50 ------- 0 0.0 1.0 135 135
r 1.2712 0 1 cbr 50 ------- 0 0.0 1.0 135 135
+ 1.272 0 1 cbr 50 ------- 0 0.0 1.0 136 136
- 1.272 0 1 cbr 50 ------- 0 0.0 1.0 136 136
r 1.2732 0 1 cbr 50 ------- 0 0.0 1.0 136 136
+ 1.274 0 1 cbr 50 ------- 0 0.0 1.0 137 137
- 1.274 0 1 cbr 50 ------- 0 0.0 1.0 137 137
r 1.2752 0 1 cbr 50 ------- 0 0.0 1.0 137 137
+ 1.276 0 1 cbr 50 ------- 0 0.0 1.0 138 138
- 1.276 0 1 cbr 50 ------- 0 0.0 1.0 138 138
r 1.2772 0 1 cbr 50 ------- 0 0.0 1.0 138 138
+ 1.278 0 1 cbr 50 ------- 0 0.0 1.0 139 139
- 1.278 0 1 cbr 50 ------- 0 0.0 1.0 139 139
r 1.2792 0 1 cbr 50 ------- 0 0.0 1.0 139 139
+ 1.28 0 1 cbr 50 ------- 0 0.0 1.0 140 140
- 1.28 0 1 cbr 50 ------- 0 0.0 1.0 140 140
r 1.2812 0 1 cbr 50 ------- 0 0.0 1.0 140 140
+ 1.282 0 1 cbr 50 ------- 0 0.0 1.0 141 141
- 1.282 0 1 cbr 50 ------- 0 0.0 1.0 141 141
r 1.2832 0 1 cbr 50 ------- 0 0.0 1.0 141 141
+ 1.284 0 1 cbr 50 ------- 0 0.0 1.0 142 142
- 1.284 0 1 cbr 50 ------- 0 0.0 1.0 142 142
r 1.2852 0 1 cbr 50 ------- 0 0.0 1.0 142 142
+ 1.286 0 1 cbr 50 ------- 0 0.0 1.0 143 143
- 1.286 0 1 cbr 50 ------- 0 0.0 1.0 143 143
r 1.2872 0 1 cbr 50 ------- 0 0.0 1.0 143 143
+ 1.288 0 1 cbr 50 ------- 0 0.0 1.0 144 144
- 1.288 0 1 cbr 50 ------- 0 0.0 1.0 144 144
r 1.2892 0 1 cbr 50 ------- 0 0.0 1.0 144 144
+ 1.29 0 1 cbr 50 ------- 0 0.0 1.0 145 145
- 1.29 0 1 cbr 50 ------- 0 0.0 1.0 145 145
r 1.2912 0 1 cbr 50 ------- 0 0.0 1.0 145 145
+ 1.292 0 1 cbr 50 ------- 0 0.0 1.0 146 146
- 1.292 0 1 cbr 50 ------- 0 0.0 1.0 146 146
r 1.2932 0 1 cbr 50 ------- 0 0.0 1.0 146 146
+ 1.294 0 1 cbr 50 ------- 0 0.0 1.0 147 147
- 1.294 0 1 cbr 50 ------- 0 0.0 1.0 147 147
r 1.2952 0 1 cbr 50 ------- 0 0.0 1.0 147 147
+ 1.296 0 1 cbr 50 ------- 0 0.0 1.0 148 148
- 1.296 0 1 cbr 50 ------- 0 0.0 1.0 148 148
r 1.2972 0 1 cbr 50 ------- 0 0.0 1.0 148 148
+ 1.298 0 1 cbr 50 ------- 0 0.0 1.0 149 149
- 1.298 0 1 cbr 50 ------- 0 0.0 1.0 149 149
r 1.2992 0 1 cbr 50 ------- 0 0.0 1.0 149 149
+ 1.3 0 1 cbr 50 ------- 0 0.0 1.0 150 150
- 1.3 0 1 cbr 50 ------- 0 0.0 1.0 150 150
r 1.3012 0 1 cbr 50 ------- 0 0.0 1.0 150 150
+ 1.302 0 1 cbr 50 ------- 0 0.0 1.0 151 151
- 1.302 0 1 cbr 50 ------- 0 0.0 1.0 151 151
r 1.3032 0 1 cbr 50 ------- 0 0.0 1.0 151 151
+ 1.304 0 1 cbr 50 ------- 0 0.0 1.0 152 152
- 1.304 0 1 cbr 50 ------- 0 0.0 1.0 152 152
r 1.3052 0 1 cbr 50 ------- 0 0.0 1.0 152 152
+ 1.306 0 1 cbr 50 ------- 0 0.0 1.0 153 153
- 1.306 0 1 cbr 50 ------- 0 0.0 1.0 153 153
r 1.3072 0 1 cbr 50 ------- 0 0.0 1.0 153 153
+ 1.308 0 1 cbr 50 ------- 0 0.0 1.0 154 154
- 1.308 0 1 cbr 50 ------- 0 0.0 1.0 154 154
r 1.3092 0 1 cbr 50 ------- 0 0.0 1.0 154 154
+ 1.31 0 1 cbr 50 ------- 0 0.0 1.0 155 155
- 1.31 0 1 cbr 50 ------- 0 0.0 1.0 155 155
r 1.3112 0 1 cbr 50 ------- 0 0.0 1.0 155 155
+ 1.312 0 1 cbr 50 ------- 0 0.0 1.0 156 156
- 1.312 0 1 cbr 50 ------- 0 0.0 1.0 156 156
r 1.3132 0 1 cbr 50 ------- 0 0.0 1.0 156 156
+ 1.314 0 1 cbr 50 ------- 0 0.0 1.0 157 157
- 1.314 0 1 cbr 50 ------- 0 0.0 1.0 157 157
r 1.3152 0 1 cbr 50 ------- 0 0.0 1.0 157 157
+ 1.316 0 1 cbr 50 ------- 0 0.0 1.0 158 158
- 1.316 0 1 cbr 50 ------- 0 0.0 1.0 158 158
r 1.3172 0 1 cbr 50 ------- 0 0.0 1.0 158 158
+ 1.318 0 1 cbr 50 ------- 0 0.0 1.0 159 159
- 1.318 0 1 cbr 50 ------- 0 0.0 1.0 159 159
r 1.3192 0 1 cbr 50 ------- 0 0.0 1.0 159 159
+ 1.32 0 1 cbr 50 ------- 0 0.0 1.0 160 160
- 1.32 0 1 cbr 50 ------- 0 0.0 1.0 160 160
r 1.3212 0 1 cbr 50 ------- 0 0.0 1.0 160 160
+ 1.322 0 1 cbr 50 ------- 0 0.0 1.0 161 161
- 1.322 0 1 cbr 50 ------- 0 0.0 1.0 161 161
r 1.3232 0 1 cbr 50 ------- 0 0.0 1.0 161 161
+ 1.324 0 1 cbr 50 ------- 0 0.0 1.0 162 162
- 1.324 0 1 cbr 50 ------- 0 0.0 1.0 162 162
r 1.3252 0 1 cbr 50 ------- 0 0.0 1.0 162 162
+ 1.326 0 1 cbr 50 ------- 0 0.0 1.0 163 163
- 1.326 0 1 cbr 50 ------- 0 0.0 1.0 163 163
r 1.3272 0 1 cbr 50 ------- 0 0.0 1.0 163 163
+ 1.328 0 1 cbr 50 ------- 0 0.0 1.0 164 164
- 1.328 0 1 cbr 50 ------- 0 0.0 1.0 164 164
r 1.3292 0 1 cbr 50 ------- 0 0.0 1.0 164 164
+ 1.33 0 1 cbr 50 ------- 0 0.0 1.0 165 165
- 1.33 0 1 cbr 50 ------- 0 0.0 1.0 165 165
r 1.3312 0 1 cbr 50 ------- 0 0.0 1.0 165 165
+ 1.332 0 1 cbr 50 ------- 0 0.0 1.0 166 166
- 1.332 0 1 cbr 50 ------- 0 0.0 1.0 166 166
r 1.3332 0 1 cbr 50 ------- 0 0.0 1.0 166 166
+ 1.334 0 1 cbr 50 ------- 0 0.0 1.0 167 167
- 1.334 0 1 cbr 50 ------- 0 0.0 1.0 167 167
r 1.3352 0 1 cbr 50 ------- 0 0.0 1.0 167 167
+ 1.336 0 1 cbr 50 ------- 0 0.0 1.0 168 168
- 1.336 0 1 cbr 50 ------- 0 0.0 1.0 168 168
r 1.3372 0 1 cbr 50 ------- 0 0.0 1.0 168 168
+ 1.338 0 1 cbr 50 ------- 0 0.0 1.0 169 169
- 1.338 0 1 cbr 50 ------- 0 0.0 1.0 169 169
r 1.3392 0 1 cbr 50 ------- 0 0.0 1.0 169 169
+ 1.34 0 1 cbr 50 ------- 0 0.0 1.0 170 170
- 1.34 0 1 cbr 50 ------- 0 0.0 1.0 170 170
r 1.3412 0 1 cbr 50 ------- 0 0.0 1.0 170 170
+ 1.342 0 1 cbr 50 ------- 0 0.0 1.0 171 171
- 1.342 0 1 cbr 50 ------- 0 0.0 1.0 171 171
r 1.3432 0 1 cbr 50 ------- 0 0.0 1.0 171 171
+ 1.344 0 1 cbr 50 ------- 0 0.0 1.0 172 172
- 1.344 0 1 cbr 50 ------- 0 0.0 1.0 172 172
r 1.3452 0 1 cbr 50 ------- 0 0.0 1.0 172 172
+ 1.346 0 1 cbr 50 ------- 0 0.0 1.0 173 173
- 1.346 0 1 cbr 50 ------- 0 0.0 1.0 173 173
r 1.3472 0 1 cbr 50 ------- 0 0.0 1.0 173 173
+ 1.348 0 1 cbr 50 ------- 0 0.0 1.0 174 174
- 1.348 0 1 cbr 50 ------- 0 0.0 1.0 174 174
r 1.3492 0 1 cbr 50 ------- 0 0.0 1.0 174 174
+ 1.35 0 1 cbr 50 ------- 0 0.0 1.0 175 175
- 1.35 0 1 cbr 50 ------- 0 0.0 1.0 175 175
r 1.3512 0 1 cbr 50 ------- 0 0.0 1.0 175 175
+ 1.352 0 1 cbr 50 ------- 0 0.0 1.0 176 176
- 1.352 0 1 cbr 50 ------- 0 0.0 1.0 176 176
r 1.3532 0 1 cbr 50 ------- 0 0.0 1.0 176 176
+ 1.354 0 1 cbr 50 ------- 0 0.0 1.0 177 177
- 1.354 0 1 cbr 50 ------- 0 0.0 1.0 177 177
r 1.3552 0 1 cbr 50 ------- 0 0.0 1.0 177 177
+ 1.356 0 1 cbr 50 ------- 0 0.0 1.0 178 178
- 1.356 0 1 cbr 50 ------- 0 0.0 1.0 178 178
r 1.3572 0 1 cbr 50 ------- 0 0.0 1.0 178 178
+ 1.358 0 1 cbr 50 ------- 0 0.0 1.0 179 179
- 1.358 0 1 cbr 50 ------- 0 0.0 1.0 179 179
r 1.3592 0 1 cbr 50 ------- 0 0.0 1.0 179 179
+ 1.36 0 1 cbr 50 ------- 0 0.0 1.0 180 180
- 1.36 0 1 cbr 50 ------- 0 0.0 1.0 180 180
r 1.3612 0 1 cbr 50 ------- 0 0.0 1.0 180 180
+ 1.362 0 1 cbr 50 ------- 0 0.0 1.0 181 181
- 1.362 0 1 cbr 50 ------- 0 0.0 1.0 181 181
r 1.3632 0 1 cbr 50 ------- 0 0.0 1.0 181 181
+ 1.364 0 1 cbr 50 ------- 0 0.0 1.0 182 182
- 1.364 0 1 cbr 50 ------- 0 0.0 1.0 182 182
r 1.3652 0 1 cbr 50 ------- 0 0.0 1.0 182 182
+ 1.366 0 1 cbr 50 ------- 0 0.0 1.0 183 183
- 1.366 0 1 cbr 50 ------- 0 0.0 1.0 183 183
r 1.3672 0 1 cbr 50 ------- 0 0.0 1.0 183 183
+ 1.368 0 1 cbr 50 ------- 0 0.0 1.0 184 184
- 1.368 0 1 cbr 50 ------- 0 0.0 1.0 184 184
r 1.3692 0 1 cbr 50 ------- 0 0.0 1.0 184 184
+ 1.37 0 1 cbr 50 ------- 0 0.0 1.0 185 185
- 1.37 0 1 cbr 50 ------- 0 0.0 1.0 185 185
r 1.3712 0 1 cbr 50 ------- 0 0.0 1.0 185 185
+ 1.372 0 1 cbr 50 ------- 0 0.0 1.0 186 186
- 1.372 0 1 cbr 50 ------- 0 0.0 1.0 186 186
r 1.3732 0 1 cbr 50 ------- 0 0.0 1.0 186 186
+ 1.374 0 1 cbr 50 ------- 0 0.0 1.0 187 187
- 1.374 0 1 cbr 50 ------- 0 0.0 1.0 187 187
r 1.3752 0 1 cbr 50 ------- 0 0.0 1.0 187 187
+ 1.376 0 1 cbr 50 ------- 0 0.0 1.0 188 188
- 1.376 0 1 cbr 50 ------- 0 0.0 1.0 188 188
r 1.3772 0 1 cbr 50 ------- 0 0.0 1.0 188 188
+ 1.378 0 1 cbr 50 ------- 0 0.0 1.0 189 189
- 1.378 0 1 cbr 50 ------- 0 0.0 1.0 189 189
r 1.3792 0 1 cbr 50 ------- 0 0.0 1.0 189 189
+ 1.38 0 1 cbr 50 ------- 0 0.0 1.0 190 190
- 1.38 0 1 cbr 50 ------- 0 0.0 1.0 190 190
r 1.3812 0 1 cbr 50 ------- 0 0.0 1.0 190 190
+ 1.382 0 1 cbr 50 ------- 0 0.0 1.0 191 191
- 1.382 0 1 cbr 50 ------- 0 0.0 1.0 191 191
r 1.3832 0 1 cbr 50 ------- 0 0.0 1.0 191 191
+ 1.384 0 1 cbr 50 ------- 0 0.0 1.0 192 192
- 1.384 0 1 cbr 50 ------- 0 0.0 1.0 192 192
r 1.3852 0 1 cbr 50 ------- 0 0.0 1.0 192 192
+ 1.386 0 1 cbr 50 ------- 0 0.0 1.0 193 193
- 1.386 0 1 cbr 50 ------- 0 0.0 1.0 193 193
r 1.3872 0 1 cbr 50 ------- 0 0.0 1.0 193 193
+ 1.388 0 1 cbr 50 ------- 0 0.0 1.0 194 194
- 1.388 0 1 cbr 50 ------- 0 0.0 1.0 194 194
r 1.3892 0 1 cbr 50 ------- 0 0.0 1.0 194 194
+ 1.39 0 1 cbr 50 ------- 0 0.0 1.0 195 195
- 1.39 0 1 cbr 50 ------- 0 0.0 1.0 195 195
r 1.3912 0 1 cbr 50 ------- 0 0.0 1.0 195 195
+ 1.392 0 1 cbr 50 ------- 0 0.0 1.0 196 196
- 1.392 0 1 cbr 50 ------- 0 0.0 1.0 196 196
r 1.3932 0 1 cbr 50 ------- 0 0.0 1.0 196 196
+ 1.394 0 1 cbr 50 ------- 0 0.0 1.0 197 197
- 1.394 0 1 cbr 50 ------- 0 0.0 1.0 197 197
r 1.3952 0 1 cbr 50 ------- 0 0.0 1.0 197 197
+ 1.396 0 1 cbr 50 ------- 0 0.0 1.0 198 198
- 1.396 0 1 cbr 50 ------- 0 0.0 1.0 198 198
r 1.3972 0 1 cbr 50 ------- 0 0.0 1.0 198 198
+ 1.398 0 1 cbr 50 ------- 0 0.0 1.0 199 199
- 1.398 0 1 cbr 50 ------- 0 0.0 1.0 199 199
r 1.3992 0 1 cbr 50 ------- 0 0.0 1.0 199 199
+ 1.4 0 1 cbr 50 ------- 0 0.0 1.0 200 200
- 1.4 0 1 cbr 50 ------- 0 0.0 1.0 200 200
r 1.4012 0 1 cbr 50 ------- 0 0.0 1.0 200 200
+ 1.402 0 1 cbr 50 ------- 0 0.0 1.0 201 201
- 1.402 0 1 cbr 50 ------- 0 0.0 1.0 201 201
r 1.4032 0 1 cbr 50 ------- 0 0.0 1.0 201 201
+ 1.404 0 1 cbr 50 ------- 0 0.0 1.0 202 202
- 1.404 0 1 cbr 50 ------- 0 0.0 1.0 202 202
r 1.4052 0 1 cbr 50 ------- 0 0.0 1.0 202 202
+ 1.406 0 1 cbr 50 ------- 0 0.0 1.0 203 203
- 1.406 0 1 cbr 50 ------- 0 0.0 1.0 203 203
r 1.4072 0 1 cbr 50 ------- 0 0.0 1.0 203 203
+ 1.408 0 1 cbr 50 ------- 0 0.0 1.0 204 204
- 1.408 0 1 cbr 50 ------- 0 0.0 1.0 204 204
r 1.4092 0 1 cbr 50 ------- 0 0.0 1.0 204 204
+ 1.41 0 1 cbr 50 ------- 0 0.0 1.0 205 205
- 1.41 0 1 cbr 50 ------- 0 0.0 1.0 205 205
r 1.4112 0 1 cbr 50 ------- 0 0.0 1.0 205 205
+ 1.412 0 1 cbr 50 ------- 0 0.0 1.0 206 206
- 1.412 0 1 cbr 50 ------- 0 0.0 1.0 206 206
r 1.4132 0 1 cbr 50 ------- 0 0.0 1.0 206 206
+ 1.414 0 1 cbr 50 ------- 0 0.0 1.0 207 207
- 1.414 0 1 cbr 50 ------- 0 0.0 1.0 207 207
r 1.4152 0 1 cbr 50 ------- 0 0.0 1.0 207 207
+ 1.416 0 1 cbr 50 ------- 0 0.0 1.0 208 208
- 1.416 0 1 cbr 50 ------- 0 0.0 1.0 208 208
r 1.4172 0 1 cbr 50 ------- 0 0.0 1.0 208 208
+ 1.418 0 1 cbr 50 ------- 0 0.0 1.0 209 209
- 1.418 0 1 cbr 50 ------- 0 0.0 1.0 209 209
r 1.4192 0 1 cbr 50 ------- 0 0.0 1.0 209 209
+ 1.42 0 1 cbr 50 ------- 0 0.0 1.0 210 210
- 1.42 0 1 cbr 50 ------- 0 0.0 1.0 210 210
r 1.4212 0 1 cbr 50 ------- 0 0.0 1.0 210 210
+ 1.422 0 1 cbr 50 ------- 0 0.0 1.0 211 211
- 1.422 0 1 cbr 50 ------- 0 0.0 1.0 211 211
r 1.4232 0 1 cbr 50 ------- 0 0.0 1.0 211 211
+ 1.424 0 1 cbr 50 ------- 0 0.0 1.0 212 212
- 1.424 0 1 cbr 50 ------- 0 0.0 1.0 212 212
r 1.4252 0 1 cbr 50 ------- 0 0.0 1.0 212 212
+ 1.426 0 1 cbr 50 ------- 0 0.0 1.0 213 213
- 1.426 0 1 cbr 50 ------- 0 0.0 1.0 213 213
r 1.4272 0 1 cbr 50 ------- 0 0.0 1.0 213 213
+ 1.428 0 1 cbr 50 ------- 0 0.0 1.0 214 214
- 1.428 0 1 cbr 50 ------- 0 0.0 1.0 214 214
r 1.4292 0 1 cbr 50 ------- 0 0.0 1.0 214 214
+ 1.43 0 1 cbr 50 ------- 0 0.0 1.0 215 215
- 1.43 0 1 cbr 50 ------- 0 0.0 1.0 215 215
r 1.4312 0 1 cbr 50 ------- 0 0.0 1.0 215 215
+ 1.432 0 1 cbr 50 ------- 0 0.0 1.0 216 216
- 1.432 0 1 cbr 50 ------- 0 0.0 1.0 216 216
r 1.4332 0 1 cbr 50 ------- 0 0.0 1.0 216 216
+ 1.434 0 1 cbr 50 ------- 0 0.0 1.0 217 217
- 1.434 0 1 cbr 50 ------- 0 0.0 1.0 217 217
r 1.4352 0 1 cbr 50 ------- 0 0.0 1.0 217 217
+ 1.436 0 1 cbr 50 ------- 0 0.0 1.0 218 218
- 1.436 0 1 cbr 50 ------- 0 0.0 1.0 218 218
r 1.4372 0 1 cbr 50 ------- 0 0.0 1.0 218 218
+ 1.438 0 1 cbr 50 ------- 0 0.0 1.0 219 219
- 1.438 0 1 cbr 50 ------- 0 0.0 1.0 219 219
r 1.4392 0 1 cbr 50 ------- 0 0.0 1.0 219 219
+ 1.44 0 1 cbr 50 ------- 0 0.0 1.0 220 220
- 1.44 0 1 cbr 50 ------- 0 0.0 1.0 220 220
r 1.4412 0 1 cbr 50 ------- 0 0.0 1.0 220 220
+ 1.442 0 1 cbr 50 ------- 0 0.0 1.0 221 221
- 1.442 0 1 cbr 50 ------- 0 0.0 1.0 221 221
r 1.4432 0 1 cbr 50 ------- 0 0.0 1.0 221 221
+ 1.444 0 1 cbr 50 ------- 0 0.0 1.0 222 222
- 1.444 0 1 cbr 50 ------- 0 0.0 1.0 222 222
r 1.4452 0 1 cbr 50 ------- 0 0.0 1.0 222 222
+ 1.446 0 1 cbr 50 ------- 0 0.0 1.0 223 223
- 1.446 0 1 cbr 50 ------- 0 0.0 1.0 223 223
r 1.4472 0 1 cbr 50 ------- 0 0.0 1.0 223 223
+ 1.448 0 1 cbr 50 ------- 0 0.0 1.0 224 224
- 1.448 0 1 cbr 50 ------- 0 0.0 1.0 224 224
r 1.4492 0 1 cbr 50 ------- 0 0.0 1.0 224 224
+ 1.45 0 1 cbr 50 ------- 0 0.0 1.0 225 225
- 1.45 0 1 cbr 50 ------- 0 0.0 1.0 225 225
r 1.4512 0 1 cbr 50 ------- 0 0.0 1.0 225 225