V -t * -v 1.0a5 -a 0
A -t * -n 1 -p 0 -o 0x7fffffff -c 30 -a 1
A -t * -h 1 -m 1073741823 -s 0
c -t * -i 1 -n Blue
c -t * -i 2 -n Red
n -t * -a 4 -s 4 -S UP -v circle -c black -i black
n -t * -a 0 -s 0 -S UP -v circle -c black -i black
n -t * -a 5 -s 5 -S UP -v circle -c black -i black
n -t * -a 1 -s 1 -S UP -v circle -c black -i black
n -t * -a 2 -s 2 -S UP -v circle -c black -i black
n -t * -a 3 -s 3 -S UP -v circle -c black -i black
l -t * -s 0 -d 2 -S UP -r 500000 -D 0.01 -c black -o right-down
l -t * -s 1 -d 2 -S UP -r 500000 -D 0.01 -c black -o right-up
l -t * -s 2 -d 3 -S UP -r 500000 -D 0.01 -c black -o right
X -t * -n 6 -r 0.5Mb -D 4ms -o left
L -t * -s 6 -d 3 -o up
L -t * -s 6 -d 4 -o down
L -t * -s 6 -d 5 -o up
q -t * -s 0 -d 2 -a 0.5
q -t * -s 2 -d 0 -a 0.5
q -t * -s 1 -d 2 -a 0.5
q -t * -s 2 -d 1 -a 0.5
q -t * -s 2 -d 3 -a 0.5
q -t * -s 3 -d 2 -a 0.5
+ -t 0.5 -s 0 -d 2 -p cbr -e 210 -c 2 -i 0 -a 2 -x {0.0 4.0 0 ------- null}
- -t 0.5 -s 0 -d 2 -p cbr -e 210 -c 2 -i 0 -a 2 -x {0.0 4.0 0 ------- null}
h -t 0.5 -s 0 -d 2 -p cbr -e 210 -c 2 -i 0 -a 2 -x {0.0 4.0 -1 ------- null}
+ -t 0.50375 -s 0 -d 2 -p cbr -e 210 -c 2 -i 1 -a 2 -x {0.0 4.0 1 ------- null}
- -t 0.50375 -s 0 -d 2 -p cbr -e 210 -c 2 -i 1 -a 2 -x {0.0 4.0 1 ------- null}
h -t 0.50375 -s 0 -d 2 -p cbr -e 210 -c 2 -i 1 -a 2 -x {0.0 4.0 -1 ------- null}
+ -t 0.5075 -s 0 -d 2 -p cbr -e 210 -c 2 -i 2 -a 2 -x {0.0 4.0 2 ------- null}
- -t 0.5075 -s 0 -d 2 -p cbr -e 210 -c 2 -i 2 -a 2 -x {0.0 4.0 2 ------- null}
h -t 0.5075 -s 0 -d 2 -p cbr -e 210 -c 2 -i 2 -a 2 -x {0.0 4.0 -1 ------- null}
+ -t 0.51125 -s 0 -d 2 -p cbr -e 210 -c 2 -i 3 -a 2 -x {0.0 4.0 3 ------- null}
- -t 0.51125 -s 0 -d 2 -p cbr -e 210 -c 2 -i 3 -a 2 -x {0.0 4.0 3 ------- null}
h -t 0.51125 -s 0 -d 2 -p cbr -e 210 -c 2 -i 3 -a 2 -x {0.0 4.0 -1 ------- null}
r -t 0.51336 -s 0 -d 2 -p cbr -e 210 -c 2 -i 0 -a 2 -x {0.0 4.0 0 ------- null}
+ -t 0.51336 -s 2 -d 3 -p cbr -e 210 -c 2 -i 0 -a 2 -x {0.0 4.0 0 ------- null}
- -t 0.51336 -s 2 -d 3 -p cbr -e 210 -c 2 -i 0 -a 2 -x {0.0 4.0 0 ------- null}
h -t 0.51336 -s 2 -d 3 -p cbr -e 210 -c 2 -i 0 -a 2 -x {0.0 4.0 -1 ------- null}
+ -t 0.515 -s 0 -d 2 -p cbr -e 210 -c 2 -i 4 -a 2 -x {0.0 4.0 4 ------- null}
- -t 0.515 -s 0 -d 2 -p cbr -e 210 -c 2 -i 4 -a 2 -x {0.0 4.0 4 ------- null}
h -t 0.515 -s 0 -d 2 -p cbr -e 210 -c 2 -i 4 -a 2 -x {0.0 4.0 -1 ------- null}
r -t 0.51711 -s 0 -d 2 -p cbr -e 210 -c 2 -i 1 -a 2 -x {0.0 4.0 1 ------- null}
+ -t 0.51711 -s 2 -d 3 -p cbr -e 210 -c 2 -i 1 -a 2 -x {0.0 4.0 1 ------- null}
- -t 0.51711 -s 2 -d 3 -p cbr -e 210 -c 2 -i 1 -a 2 -x {0.0 4.0 1 ------- null}
h -t 0.51711 -s 2 -d 3 -p cbr -e 210 -c 2 -i 1 -a 2 -x {0.0 4.0 -1 ------- null}
+ -t 0.51875 -s 0 -d 2 -p cbr -e 210 -c 2 -i 5 -a 2 -x {0.0 4.0 5 ------- null}
- -t 0.51875 -s 0 -d 2 -p cbr -e 210 -c 2 -i 5 -a 2 -x {0.0 4.0 5 ------- null}
h -t 0.51875 -s 0 -d 2 -p cbr -e 210 -c 2 -i 5 -a 2 -x {0.0 4.0 -1 ------- null}
r -t 0.52086 -s 0 -d 2 -p cbr -e 210 -c 2 -i 2 -a 2 -x {0.0 4.0 2 ------- null}
+ -t 0.52086 -s 2 -d 3 -p cbr -e 210 -c 2 -i 2 -a 2 -x {0.0 4.0 2 ------- null}
- -t 0.52086 -s 2 -d 3 -p cbr -e 210 -c 2 -i 2 -a 2 -x {0.0 4.0 2 ------- null}
h -t 0.52086 -s 2 -d 3 -p cbr -e 210 -c 2 -i 2 -a 2 -x {0.0 4.0 -1 ------- null}
+ -t 0.5225 -s 0 -d 2 -p cbr -e 210 -c 2 -i 6 -a 2 -x {0.0 4.0 6 ------- null}
- -t 0.5225 -s 0 -d 2 -p cbr -e 210 -c 2 -i 6 -a 2 -x {0.0 4.0 6 ------- null}
h -t 0.5225 -s 0 -d 2 -p cbr -e 210 -c 2 -i 6 -a 2 -x {0.0 4.0 -1 ------- null}
r -t 0.52461 -s 0 -d 2 -p cbr -e 210 -c 2 -i 3 -a 2 -x {0.0 4.0 3 ------- null}
+ -t 0.52461 -s 2 -d 3 -p cbr -e 210 -c 2 -i 3 -a 2 -x {0.0 4.0 3 ------- null}
- -t 0.52461 -s 2 -d 3 -p cbr -e 210 -c 2 -i 3 -a 2 -x {0.0 4.0 3 ------- null}
h -t 0.52461 -s 2 -d 3 -p cbr -e 210 -c 2 -i 3 -a 2 -x {0.0 4.0 -1 ------- null}
+ -t 0.52625 -s 0 -d 2 -p cbr -e 210 -c 2 -i 7 -a 2 -x {0.0 4.0 7 ------- null}
- -t 0.52625 -s 0 -d 2 -p cbr -e 210 -c 2 -i 7 -a 2 -x {0.0 4.0 7 ------- null}
h -t 0.52625 -s 0 -d 2 -p cbr -e 210 -c 2 -i 7 -a 2 -x {0.0 4.0 -1 ------- null}
r -t 0.52672 -s 2 -d 3 -p cbr -e 210 -c 2 -i 0 -a 2 -x {0.0 4.0 0 ------- null}
h -t 0.52672 -s 3 -d 6 -p cbr -e 210 -c 2 -i 0 -a 2 -x {0.0 4.0 0 ------- null}
r -t 0.52836 -s 0 -d 2 -p cbr -e 210 -c 2 -i 4 -a 2 -x {0.0 4.0 4 ------- null}
+ -t 0.52836 -s 2 -d 3 -p cbr -e 210 -c 2 -i 4 -a 2 -x {0.0 4.0 4 ------- null}
- -t 0.52836 -s 2 -d 3 -p cbr -e 210 -c 2 -i 4 -a 2 -x {0.0 4.0 4 ------- null}
h -t 0.52836 -s 2 -d 3 -p cbr -e 210 -c 2 -i 4 -a 2 -x {0.0 4.0 -1 ------- null}
+ -t 0.53 -s 0 -d 2 -p cbr -e 210 -c 2 -i 8 -a 2 -x {0.0 4.0 8 ------- null}
- -t 0.53 -s 0 -d 2 -p cbr -e 210 -c 2 -i 8 -a 2 -x {0.0 4.0 8 ------- null}
h -t 0.53 -s 0 -d 2 -p cbr -e 210 -c 2 -i 8 -a 2 -x {0.0 4.0 -1 ------- null}
r -t 0.53047 -s 2 -d 3 -p cbr -e 210 -c 2 -i 1 -a 2 -x {0.0 4.0 1 ------- null}
h -t 0.53047 -s 3 -d 6 -p cbr -e 210 -c 2 -i 1 -a 2 -x {0.0 4.0 1 ------- null}
+ -t 0.53072 -s 3 -d 6 -p cbr -e 210 -c 2 -i 0 -a 2 -x {0.0 4.0 0 ------- null}
- -t 0.53072 -s 3 -d 6 -p cbr -e 210 -c 2 -i 0 -a 2 -x {0.0 4.0 0 ------- null}
h -t 0.53072 -s 3 -d 6 -p cbr -e 210 -c 2 -i 0 -a 2 -x {0.0 4.0 -1 ------- null}
d -t 0.530724 -s 5 -d 6 -p cbr -e 210 -c 2 -i 0 -a 2 -x {0.0 4.0 0 ------- null}
r -t 0.53211 -s 0 -d 2 -p cbr -e 210 -c 2 -i 5 -a 2 -x {0.0 4.0 5 ------- null}
+ -t 0.53211 -s 2 -d 3 -p cbr -e 210 -c 2 -i 5 -a 2 -x {0.0 4.0 5 ------- null}
- -t 0.53211 -s 2 -d 3 -p cbr -e 210 -c 2 -i 5 -a 2 -x {0.0 4.0 5 ------- null}
h -t 0.53211 -s 2 -d 3 -p cbr -e 210 -c 2 -i 5 -a 2 -x {0.0 4.0 -1 ------- null}
+ -t 0.53375 -s 0 -d 2 -p cbr -e 210 -c 2 -i 9 -a 2 -x {0.0 4.0 9 ------- null}
- -t 0.53375 -s 0 -d 2 -p cbr -e 210 -c 2 -i 9 -a 2 -x {0.0 4.0 9 ------- null}
h -t 0.53375 -s 0 -d 2 -p cbr -e 210 -c 2 -i 9 -a 2 -x {0.0 4.0 -1 ------- null}
r -t 0.53422 -s 2 -d 3 -p cbr -e 210 -c 2 -i 2 -a 2 -x {0.0 4.0 2 ------- null}
h -t 0.53422 -s 3 -d 6 -p cbr -e 210 -c 2 -i 2 -a 2 -x {0.0 4.0 2 ------- null}
+ -t 0.53447 -s 3 -d 6 -p cbr -e 210 -c 2 -i 1 -a 2 -x {0.0 4.0 1 ------- null}
- -t 0.53447 -s 3 -d 6 -p cbr -e 210 -c 2 -i 1 -a 2 -x {0.0 4.0 1 ------- null}
h -t 0.53447 -s 3 -d 6 -p cbr -e 210 -c 2 -i 1 -a 2 -x {0.0 4.0 -1 ------- null}
d -t 0.534474 -s 5 -d 6 -p cbr -e 210 -c 2 -i 1 -a 2 -x {0.0 4.0 1 ------- null}
r -t 0.534724 -s 6 -d 4 -p cbr -e 210 -c 2 -i 0 -a 2 -x {0.0 4.0 0 ------- null}
r -t 0.53586 -s 0 -d 2 -p cbr -e 210 -c 2 -i 6 -a 2 -x {0.0 4.0 6 ------- null}
+ -t 0.53586 -s 2 -d 3 -p cbr -e 210 -c 2 -i 6 -a 2 -x {0.0 4.0 6 ------- null}
- -t 0.53586 -s 2 -d 3 -p cbr -e 210 -c 2 -i 6 -a 2 -x {0.0 4.0 6 ------- null}
h -t 0.53586 -s 2 -d 3 -p cbr -e 210 -c 2 -i 6 -a 2 -x {0.0 4.0 -1 ------- null}
+ -t 0.5375 -s 0 -d 2 -p cbr -e 210 -c 2 -i 10 -a 2 -x {0.0 4.0 10 ------- null}
- -t 0.5375 -s 0 -d 2 -p cbr -e 210 -c 2 -i 10 -a 2 -x {0.0 4.0 10 ------- null}
h -t 0.5375 -s 0 -d 2 -p cbr -e 210 -c 2 -i 10 -a 2 -x {0.0 4.0 -1 ------- null}
r -t 0.53797 -s 2 -d 3 -p cbr -e 210 -c 2 -i 3 -a 2 -x {0.0 4.0 3 ------- null}
h -t 0.53797 -s 3 -d 6 -p cbr -e 210 -c 2 -i 3 -a 2 -x {0.0 4.0 3 ------- null}
+ -t 0.53822 -s 3 -d 6 -p cbr -e 210 -c 2 -i 2 -a 2 -x {0.0 4.0 2 ------- null}
- -t 0.53822 -s 3 -d 6 -p cbr -e 210 -c 2 -i 2 -a 2 -x {0.0 4.0 2 ------- null}
h -t 0.53822 -s 3 -d 6 -p cbr -e 210 -c 2 -i 2 -a 2 -x {0.0 4.0 -1 ------- null}
d -t 0.538224 -s 5 -d 6 -p cbr -e 210 -c 2 -i 2 -a 2 -x {0.0 4.0 2 ------- null}
r -t 0.538474 -s 6 -d 4 -p cbr -e 210 -c 2 -i 1 -a 2 -x {0.0 4.0 1 ------- null}
r -t 0.53961 -s 0 -d 2 -p cbr -e 210 -c 2 -i 7 -a 2 -x {0.0 4.0 7 ------- null}
+ -t 0.53961 -s 2 -d 3 -p cbr -e 210 -c 2 -i 7 -a 2 -x {0.0 4.0 7 ------- null}
- -t 0.53961 -s 2 -d 3 -p cbr -e 210 -c 2 -i 7 -a 2 -x {0.0 4.0 7 ------- null}
h -t 0.53961 -s 2 -d 3 -p cbr -e 210 -c 2 -i 7 -a 2 -x {0.0 4.0 -1 ------- null}
+ -t 0.54125 -s 0 -d 2 -p cbr -e 210 -c 2 -i 11 -a 2 -x {0.0 4.0 11 ------- null}
- -t 0.54125 -s 0 -d 2 -p cbr -e 210 -c 2 -i 11 -a 2 -x {0.0 4.0 11 ------- null}
h -t 0.54125 -s 0 -d 2 -p cbr -e 210 -c 2 -i 11 -a 2 -x {0.0 4.0 -1 ------- null}
r -t 0.54172 -s 2 -d 3 -p cbr -e 210 -c 2 -i 4 -a 2 -x {0.0 4.0 4 ------- null}
h -t 0.54172 -s 3 -d 6 -p cbr -e 210 -c 2 -i 4 -a 2 -x {0.0 4.0 4 ------- null}
+ -t 0.54197 -s 3 -d 6 -p cbr -e 210 -c 2 -i 3 -a 2 -x {0.0 4.0 3 ------- null}
- -t 0.54197 -s 3 -d 6 -p cbr -e 210 -c 2 -i 3 -a 2 -x {0.0 4.0 3 ------- null}
h -t 0.54197 -s 3 -d 6 -p cbr -e 210 -c 2 -i 3 -a 2 -x {0.0 4.0 -1 ------- null}
d -t 0.541974 -s 5 -d 6 -p cbr -e 210 -c 2 -i 3 -a 2 -x {0.0 4.0 3 ------- null}
r -t 0.542224 -s 6 -d 4 -p cbr -e 210 -c 2 -i 2 -a 2 -x {0.0 4.0 2 ------- null}
r -t 0.54336 -s 0 -d 2 -p cbr -e 210 -c 2 -i 8 -a 2 -x {0.0 4.0 8 ------- null}
+ -t 0.54336 -s 2 -d 3 -p cbr -e 210 -c 2 -i 8 -a 2 -x {0.0 4.0 8 ------- null}
- -t 0.54336 -s 2 -d 3 -p cbr -e 210 -c 2 -i 8 -a 2 -x {0.0 4.0 8 ------- null}
h -t 0.54336 -s 2 -d 3 -p cbr -e 210 -c 2 -i 8 -a 2 -x {0.0 4.0 -1 ------- null}
+ -t 0.545 -s 0 -d 2 -p cbr -e 210 -c 2 -i 12 -a 2 -x {0.0 4.0 12 ------- null}
- -t 0.545 -s 0 -d 2 -p cbr -e 210 -c 2 -i 12 -a 2 -x {0.0 4.0 12 ------- null}
h -t 0.545 -s 0 -d 2 -p cbr -e 210 -c 2 -i 12 -a 2 -x {0.0 4.0 -1 ------- null}
r -t 0.54547 -s 2 -d 3 -p cbr -e 210 -c 2 -i 5 -a 2 -x {0.0 4.0 5 ------- null}
h -t 0.54547 -s 3 -d 6 -p cbr -e 210 -c 2 -i 5 -a 2 -x {0.0 4.0 5 ------- null}
+ -t 0.54572 -s 3 -d 6 -p cbr -e 210 -c 2 -i 4 -a 2 -x {0.0 4.0 4 ------- null}
- -t 0.54572 -s 3 -d 6 -p cbr -e 210 -c 2 -i 4 -a 2 -x {0.0 4.0 4 ------- null}
h -t 0.54572 -s 3 -d 6 -p cbr -e 210 -c 2 -i 4 -a 2 -x {0.0 4.0 -1 ------- null}
d -t 0.545724 -s 5 -d 6 -p cbr -e 210 -c 2 -i 4 -a 2 -x {0.0 4.0 4 ------- null}
r -t 0.545974 -s 6 -d 4 -p cbr -e 210 -c 2 -i 3 -a 2 -x {0.0 4.0 3 ------- null}
r -t 0.54711 -s 0 -d 2 -p cbr -e 210 -c 2 -i 9 -a 2 -x {0.0 4.0 9 ------- null}
+ -t 0.54711 -s 2 -d 3 -p cbr -e 210 -c 2 -i 9 -a 2 -x {0.0 4.0 9 ------- null}
- -t 0.54711 -s 2 -d 3 -p cbr -e 210 -c 2 -i 9 -a 2 -x {0.0 4.0 9 ------- null}
h -t 0.54711 -s 2 -d 3 -p cbr -e 210 -c 2 -i 9 -a 2 -x {0.0 4.0 -1 ------- null}
+ -t 0.54875 -s 0 -d 2 -p cbr -e 210 -c 2 -i 13 -a 2 -x {0.0 4.0 13 ------- null}
- -t 0.54875 -s 0 -d 2 -p cbr -e 210 -c 2 -i 13 -a 2 -x {0.0 4.0 13 ------- null}
h -t 0.54875 -s 0 -d 2 -p cbr -e 210 -c 2 -i 13 -a 2 -x {0.0 4.0 -1 ------- null}
r -t 0.54922 -s 2 -d 3 -p cbr -e 210 -c 2 -i 6 -a 2 -x {0.0 4.0 6 ------- null}
h -t 0.54922 -s 3 -d 6 -p cbr -e 210 -c 2 -i 6 -a 2 -x {0.0 4.0 6 ------- null}
+ -t 0.54947 -s 3 -d 6 -p cbr -e 210 -c 2 -i 5 -a 2 -x {0.0 4.0 5 ------- null}
- -t 0.54947 -s 3 -d 6 -p cbr -e 210 -c 2 -i 5 -a 2 -x {0.0 4.0 5 ------- null}
h -t 0.54947 -s 3 -d 6 -p cbr -e 210 -c 2 -i 5 -a 2 -x {0.0 4.0 -1 ------- null}
d -t 0.549474 -s 5 -d 6 -p cbr -e 210 -c 2 -i 5 -a 2 -x {0.0 4.0 5 ------- null}
r -t 0.549724 -s 6 -d 4 -p cbr -e 210 -c 2 -i 4 -a 2 -x {0.0 4.0 4 ------- null}
r -t 0.55086 -s 0 -d 2 -p cbr -e 210 -c 2 -i 10 -a 2 -x {0.0 4.0 10 ------- null}
+ -t 0.55086 -s 2 -d 3 -p cbr -e 210 -c 2 -i 10 -a 2 -x {0.0 4.0 10 ------- null}
- -t 0.55086 -s 2 -d 3 -p cbr -e 210 -c 2 -i 10 -a 2 -x {0.0 4.0 10 ------- null}
h -t 0.55086 -s 2 -d 3 -p cbr -e 210 -c 2 -i 10 -a 2 -x {0.0 4.0 -1 ------- null}
+ -t 0.5525 -s 0 -d 2 -p cbr -e 210 -c 2 -i 14 -a 2 -x {0.0 4.0 14 ------- null}
- -t 0.5525 -s 0 -d 2 -p cbr -e 210 -c 2 -i 14 -a 2 -x {0.0 4.0 14 ------- null}
h -t 0.5525 -s 0 -d 2 -p cbr -e 210 -c 2 -i 14 -a 2 -x {0.0 4.0 -1 ------- null}
r -t 0.55297 -s 2 -d 3 -p cbr -e 210 -c 2 -i 7 -a 2 -x {0.0 4.0 7 ------- null}
h -t 0.55297 -s 3 -d 6 -p cbr -e 210 -c 2 -i 7 -a 2 -x {0.0 4.0 7 ------- null}
+ -t 0.55322 -s 3 -d 6 -p cbr -e 210 -c 2 -i 6 -a 2 -x {0.0 4.0 6 ------- null}
- -t 0.55322 -s 3 -d 6 -p cbr -e 210 -c 2 -i 6 -a 2 -x {0.0 4.0 6 ------- null}
h -t 0.55322 -s 3 -d 6 -p cbr -e 210 -c 2 -i 6 -a 2 -x {0.0 4.0 -1 ------- null}
d -t 0.553224 -s 5 -d 6 -p cbr -e 210 -c 2 -i 6 -a 2 -x {0.0 4.0 6 ------- null}
r -t 0.553474 -s 6 -d 4 -p cbr -e 210 -c 2 -i 5 -a 2 -x {0.0 4.0 5 ------- null}
r -t 0.55461 -s 0 -d 2 -p cbr -e 210 -c 2 -i 11 -a 2 -x {0.0 4.0 11 ------- null}
+ -t 0.55461 -s 2 -d 3 -p cbr -e 210 -c 2 -i 11 -a 2 -x {0.0 4.0 11 ------- null}
- -t 0.55461 -s 2 -d 3 -p cbr -e 210 -c 2 -i 11 -a 2 -x {0.0 4.0 11 ------- null}
h -t 0.55461 -s 2 -d 3 -p cbr -e 210 -c 2 -i 11 -a 2 -x {0.0 4.0 -1 ------- null}
+ -t 0.55625 -s 0 -d 2 -p cbr -e 210 -c 2 -i 15 -a 2 -x {0.0 4.0 15 ------- null}
- -t 0.55625 -s 0 -d 2 -p cbr -e 210 -c 2 -i 15 -a 2 -x {0.0 4.0 15 ------- null}
h -t 0.55625 -s 0 -d 2 -p cbr -e 210 -c 2 -i 15 -a 2 -x {0.0 4.0 -1 ------- null}
r -t 0.55672 -s 2 -d 3 -p cbr -e 210 -c 2 -i 8 -a 2 -x {0.0 4.0 8 ------- null}
h -t 0.55672 -s 3 -d 6 -p cbr -e 210 -c 2 -i 8 -a 2 -x {0.0 4.0 8 ------- null}
+ -t 0.55697 -s 3 -d 6 -p cbr -e 210 -c 2 -i 7 -a 2 -x {0.0 4.0 7 ------- null}
- -t 0.55697 -s 3 -d 6 -p cbr -e 210 -c 2 -i 7 -a 2 -x {0.0 4.0 7 ------- null}
h -t 0.55697 -s 3 -d 6 -p cbr -e 210 -c 2 -i 7 -a 2 -x {0.0 4.0 -1 ------- null}
d -t 0.556974 -s 5 -d 6 -p cbr -e 210 -c 2 -i 7 -a 2 -x {0.0 4.0 7 ------- null}
r -t 0.557224 -s 6 -d 4 -p cbr -e 210 -c 2 -i 6 -a 2 -x {0.0 4.0 6 ------- null}
r -t 0.55836 -s 0 -d 2 -p cbr -e 210 -c 2 -i 12 -a 2 -x {0.0 4.0 12 ------- null}
+ -t 0.55836 -s 2 -d 3 -p cbr -e 210 -c 2 -i 12 -a 2 -x {0.0 4.0 12 ------- null}
- -t 0.55836 -s 2 -d 3 -p cbr -e 210 -c 2 -i 12 -a 2 -x {0.0 4.0 12 ------- null}
h -t 0.55836 -s 2 -d 3 -p cbr -e 210 -c 2 -i 12 -a 2 -x {0.0 4.0 -1 ------- null}
+ -t 0.56 -s 0 -d 2 -p cbr -e 210 -c 2 -i 16 -a 2 -x {0.0 4.0 16 ------- null}
- -t 0.56 -s 0 -d 2 -p cbr -e 210 -c 2 -i 16 -a 2 -x {0.0 4.0 16 ------- null}
h -t 0.56 -s 0 -d 2 -p cbr -e 210 -c 2 -i 16 -a 2 -x {0.0 4.0 -1 ------- null}
r -t 0.56047 -s 2 -d 3 -p cbr -e 210 -c 2 -i 9 -a 2 -x {0.0 4.0 9 ------- null}
h -t 0.56047 -s 3 -d 6 -p cbr -e 210 -c 2 -i 9 -a 2 -x {0.0 4.0 9 ------- null}
+ -t 0.56072 -s 3 -d 6 -p cbr -e 210 -c 2 -i 8 -a 2 -x {0.0 4.0 8 ------- null}
- -t 0.56072 -s 3 -d 6 -p cbr -e 210 -c 2 -i 8 -a 2 -x {0.0 4.0 8 ------- null}
h -t 0.56072 -s 3 -d 6 -p cbr -e 210 -c 2 -i 8 -a 2 -x {0.0 4.0 -1 ------- null}
d -t 0.560724 -s 5 -d 6 -p cbr -e 210 -c 2 -i 8 -a 2 -x {0.0 4.0 8 ------- null}
r -t 0.560974 -s 6 -d 4 -p cbr -e 210 -c 2 -i 7 -a 2 -x {0.0 4.0 7 ------- null}
r -t 0.56211 -s 0 -d 2 -p cbr -e 210 -c 2 -i 13 -a 2 -x {0.0 4.0 13 ------- null}
+ -t 0.56211 -s 2 -d 3 -p cbr -e 210 -c 2 -i 13 -a 2 -x {0.0 4.0 13 ------- null}
- -t 0.56211 -s 2 -d 3 -p cbr -e 210 -c 2 -i 13 -a 2 -x {0.0 4.0 13 ------- null}
h -t 0.56211 -s 2 -d 3 -p cbr -e 210 -c 2 -i 13 -a 2 -x {0.0 4.0 -1 ------- null}
+ -t 0.563750000000001 -s 0 -d 2 -p cbr -e 210 -c 2 -i 17 -a 2 -x {0.0 4.0 17 ------- null}
- -t 0.563750000000001 -s 0 -d 2 -p cbr -e 210 -c 2 -i 17 -a 2 -x {0.0 4.0 17 ------- null}
h -t 0.563750000000001 -s 0 -d 2 -p cbr -e 210 -c 2 -i 17 -a 2 -x {0.0 4.0 -1 ------- null}
r -t 0.56422 -s 2 -d 3 -p cbr -e 210 -c 2 -i 10 -a 2 -x {0.0 4.0 10 ------- null}
h -t 0.56422 -s 3 -d 6 -p cbr -e 210 -c 2 -i 10 -a 2 -x {0.0 4.0 10 ------- null}
+ -t 0.56447 -s 3 -d 6 -p cbr -e 210 -c 2 -i 9 -a 2 -x {0.0 4.0 9 ------- null}
- -t 0.56447 -s 3 -d 6 -p cbr -e 210 -c 2 -i 9 -a 2 -x {0.0 4.0 9 ------- null}
h -t 0.56447 -s 3 -d 6 -p cbr -e 210 -c 2 -i 9 -a 2 -x {0.0 4.0 -1 ------- null}
d -t 0.564474 -s 5 -d 6 -p cbr -e 210 -c 2 -i 9 -a 2 -x {0.0 4.0 9 ------- null}
r -t 0.564724 -s 6 -d 4 -p cbr -e 210 -c 2 -i 8 -a 2 -x {0.0 4.0 8 ------- null}
r -t 0.56586 -s 0 -d 2 -p cbr -e 210 -c 2 -i 14 -a 2 -x {0.0 4.0 14 ------- null}
+ -t 0.56586 -s 2 -d 3 -p cbr -e 210 -c 2 -i 14 -a 2 -x {0.0 4.0 14 ------- null}
- -t 0.56586 -s 2 -d 3 -p cbr -e 210 -c 2 -i 14 -a 2 -x {0.0 4.0 14 ------- null}
h -t 0.56586 -s 2 -d 3 -p cbr -e 210 -c 2 -i 14 -a 2 -x {0.0 4.0 -1 ------- null}
+ -t 0.567500000000001 -s 0 -d 2 -p cbr -e 210 -c 2 -i 18 -a 2 -x {0.0 4.0 18 ------- null}
- -t 0.567500000000001 -s 0 -d 2 -p cbr -e 210 -c 2 -i 18 -a 2 -x {0.0 4.0 18 ------- null}
h -t 0.567500000000001 -s 0 -d 2 -p cbr -e 210 -c 2 -i 18 -a 2 -x {0.0 4.0 -1 ------- null}
r -t 0.56797 -s 2 -d 3 -p cbr -e 210 -c 2 -i 11 -a 2 -x {0.0 4.0 11 ------- null}
h -t 0.56797 -s 3 -d 6 -p cbr -e 210 -c 2 -i 11 -a 2 -x {0.0 4.0 11 ------- null}
+ -t 0.56822 -s 3 -d 6 -p cbr -e 210 -c 2 -i 10 -a 2 -x {0.0 4.0 10 ------- null}
- -t 0.56822 -s 3 -d 6 -p cbr -e 210 -c 2 -i 10 -a 2 -x {0.0 4.0 10 ------- null}
h -t 0.56822 -s 3 -d 6 -p cbr -e 210 -c 2 -i 10 -a 2 -x {0.0 4.0 -1 ------- null}
d -t 0.568224 -s 5 -d 6 -p cbr -e 210 -c 2 -i 10 -a 2 -x {0.0 4.0 10 ------- null}
r -t 0.568474 -s 6 -d 4 -p cbr -e 210 -c 2 -i 9 -a 2 -x {0.0 4.0 9 ------- null}
r -t 0.569610000000001 -s 0 -d 2 -p cbr -e 210 -c 2 -i 15 -a 2 -x {0.0 4.0 15 ------- null}
+ -t 0.569610000000001 -s 2 -d 3 -p cbr -e 210 -c 2 -i 15 -a 2 -x {0.0 4.0 15 ------- null}
- -t 0.569610000000001 -s 2 -d 3 -p cbr -e 210 -c 2 -i 15 -a 2 -x {0.0 4.0 15 ------- null}
h -t 0.569610000000001 -s 2 -d 3 -p cbr -e 210 -c 2 -i 15 -a 2 -x {0.0 4.0 -1 ------- null}
+ -t 0.571250000000001 -s 0 -d 2 -p cbr -e 210 -c 2 -i 19 -a 2 -x {0.0 4.0 19 ------- null}
- -t 0.571250000000001 -s 0 -d 2 -p cbr -e 210 -c 2 -i 19 -a 2 -x {0.0 4.0 19 ------- null}
h -t 0.571250000000001 -s 0 -d 2 -p cbr -e 210 -c 2 -i 19 -a 2 -x {0.0 4.0 -1 ------- null}
r -t 0.57172 -s 2 -d 3 -p cbr -e 210 -c 2 -i 12 -a 2 -x {0.0 4.0 12 ------- null}
h -t 0.57172 -s 3 -d 6 -p cbr -e 210 -c 2 -i 12 -a 2 -x {0.0 4.0 12 ------- null}
+ -t 0.57197 -s 3 -d 6 -p cbr -e 210 -c 2 -i 11 -a 2 -x {0.0 4.0 11 ------- null}
- -t 0.57197 -s 3 -d 6 -p cbr -e 210 -c 2 -i 11 -a 2 -x {0.0 4.0 11 ------- null}
h -t 0.57197 -s 3 -d 6 -p cbr -e 210 -c 2 -i 11 -a 2 -x {0.0 4.0 -1 ------- null}
d -t 0.571974 -s 5 -d 6 -p cbr -e 210 -c 2 -i 11 -a 2 -x {0.0 4.0 11 ------- null}
r -t 0.572224 -s 6 -d 4 -p cbr -e 210 -c 2 -i 10 -a 2 -x {0.0 4.0 10 ------- null}
r -t 0.573360000000001 -s 0 -d 2 -p cbr -e 210 -c 2 -i 16 -a 2 -x {0.0 4.0 16 ------- null}
+ -t 0.573360000000001 -s 2 -d 3 -p cbr -e 210 -c 2 -i 16 -a 2 -x {0.0 4.0 16 ------- null}
- -t 0.573360000000001 -s 2 -d 3 -p cbr -e 210 -c 2 -i 16 -a 2 -x {0.0 4.0 16 ------- null}
h -t 0.573360000000001 -s 2 -d 3 -p cbr -e 210 -c 2 -i 16 -a 2 -x {0.0 4.0 -1 ------- null}
+ -t 0.575000000000001 -s 0 -d 2 -p cbr -e 210 -c 2 -i 20 -a 2 -x {0.0 4.0 20 ------- null}
- -t 0.575000000000001 -s 0 -d 2 -p cbr -e 210 -c 2 -i 20 -a 2 -x {0.0 4.0 20 ------- null}
h -t 0.575000000000001 -s 0 -d 2 -p cbr -e 210 -c 2 -i 20 -a 2 -x {0.0 4.0 -1 ------- null}
r -t 0.57547 -s 2 -d 3 -p cbr -e 210 -c 2 -i 13 -a 2 -x {0.0 4.0 13 ------- null}
h -t 0.57547 -s 3 -d 6 -p cbr -e 210 -c 2 -i 13 -a 2 -x {0.0 4.0 13 ------- null}
+ -t 0.57572 -s 3 -d 6 -p cbr -e 210 -c 2 -i 12 -a 2 -x {0.0 4.0 12 ------- null}
- -t 0.57572 -s 3 -d 6 -p cbr -e 210 -c 2 -i 12 -a 2 -x {0.0 4.0 12 ------- null}
h -t 0.57572 -s 3 -d 6 -p cbr -e 210 -c 2 -i 12 -a 2 -x {0.0 4.0 -1 ------- null}
d -t 0.575724 -s 5 -d 6 -p cbr -e 210 -c 2 -i 12 -a 2 -x {0.0 4.0 12 ------- null}
r -t 0.575974 -s 6 -d 4 -p cbr -e 210 -c 2 -i 11 -a 2 -x {0.0 4.0 11 ------- null}
r -t 0.577110000000001 -s 0 -d 2 -p cbr -e 210 -c 2 -i 17 -a 2 -x {0.0 4.0 17 ------- null}
+ -t 0.577110000000001 -s 2 -d 3 -p cbr -e 210 -c 2 -i 17 -a 2 -x {0.0 4.0 17 ------- null}
- -t 0.577110000000001 -s 2 -d 3 -p cbr -e 210 -c 2 -i 17 -a 2 -x {0.0 4.0 17 ------- null}
h -t 0.577110000000001 -s 2 -d 3 -p cbr -e 210 -c 2 -i 17 -a 2 -x {0.0 4.0 -1 ------- null}
+ -t 0.578750000000001 -s 0 -d 2 -p cbr -e 210 -c 2 -i 21 -a 2 -x {0.0 4.0 21 ------- null}
- -t 0.578750000000001 -s 0 -d 2 -p cbr -e 210 -c 2 -i 21 -a 2 -x {0.0 4.0 21 ------- null}
h -t 0.578750000000001 -s 0 -d 2 -p cbr -e 210 -c 2 -i 21 -a 2 -x {0.0 4.0 -1 ------- null}
r -t 0.579220000000001 -s 2 -d 3 -p cbr -e 210 -c 2 -i 14 -a 2 -x {0.0 4.0 14 ------- null}
h -t 0.579220000000001 -s 3 -d 6 -p cbr -e 210 -c 2 -i 14 -a 2 -x {0.0 4.0 14 ------- null}
+ -t 0.57947 -s 3 -d 6 -p cbr -e 210 -c 2 -i 13 -a 2 -x {0.0 4.0 13 ------- null}
- -t 0.57947 -s 3 -d 6 -p cbr -e 210 -c 2 -i 13 -a 2 -x {0.0 4.0 13 ------- null}
h -t 0.57947 -s 3 -d 6 -p cbr -e 210 -c 2 -i 13 -a 2 -x {0.0 4.0 -1 ------- null}
d -t 0.579474 -s 5 -d 6 -p cbr -e 210 -c 2 -i 13 -a 2 -x {0.0 4.0 13 ------- null}
r -t 0.579724 -s 6 -d 4 -p cbr -e 210 -c 2 -i 12 -a 2 -x {0.0 4.0 12 ------- null}
r -t 0.580860000000001 -s 0 -d 2 -p cbr -e 210 -c 2 -i 18 -a 2 -x {0.0 4.0 18 ------- null}
+ -t 0.580860000000001 -s 2 -d 3 -p cbr -e 210 -c 2 -i 18 -a 2 -x {0.0 4.0 18 ------- null}
- -t 0.580860000000001 -s 2 -d 3 -p cbr -e 210 -c 2 -i 18 -a 2 -x {0.0 4.0 18 ------- null}
h -t 0.580860000000001 -s 2 -d 3 -p cbr -e 210 -c 2 -i 18 -a 2 -x {0.0 4.0 -1 ------- null}
+ -t 0.582500000000001 -s 0 -d 2 -p cbr -e 210 -c 2 -i 22 -a 2 -x {0.0 4.0 22 ------- null}
- -t 0.582500000000001 -s 0 -d 2 -p cbr -e 210 -c 2 -i 22 -a 2 -x {0.0 4.0 22 ------- null}
h -t 0.582500000000001 -s 0 -d 2 -p cbr -e 210 -c 2 -i 22 -a 2 -x {0.0 4.0 -1 ------- null}
r -t 0.582970000000001 -s 2 -d 3 -p cbr -e 210 -c 2 -i 15 -a 2 -x {0.0 4.0 15 ------- null}
h -t 0.582970000000001 -s 3 -d 6 -p cbr -e 210 -c 2 -i 15 -a 2 -x {0.0 4.0 15 ------- null}
+ -t 0.583220000000001 -s 3 -d 6 -p cbr -e 210 -c 2 -i 14 -a 2 -x {0.0 4.0 14 ------- null}
- -t 0.583220000000001 -s 3 -d 6 -p cbr -e 210 -c 2 -i 14 -a 2 -x {0.0 4.0 14 ------- null}
h -t 0.583220000000001 -s 3 -d 6 -p cbr -e 210 -c 2 -i 14 -a 2 -x {0.0 4.0 -1 ------- null}
d -t 0.583224000000001 -s 5 -d 6 -p cbr -e 210 -c 2 -i 14 -a 2 -x {0.0 4.0 14 ------- null}
r -t 0.583474 -s 6 -d 4 -p cbr -e 210 -c 2 -i 13 -a 2 -x {0.0 4.0 13 ------- null}
r -t 0.584610000000001 -s 0 -d 2 -p cbr -e 210 -c 2 -i 19 -a 2 -x {0.0 4.0 19 ------- null}
+ -t 0.584610000000001 -s 2 -d 3 -p cbr -e 210 -c 2 -i 19 -a 2 -x {0.0 4.0 19 ------- null}
- -t 0.584610000000001 -s 2 -d 3 -p cbr -e 210 -c 2 -i 19 -a 2 -x {0.0 4.0 19 ------- null}
h -t 0.584610000000001 -s 2 -d 3 -p cbr -e 210 -c 2 -i 19 -a 2 -x {0.0 4.0 -1 ------- null}
+ -t 0.586250000000001 -s 0 -d 2 -p cbr -e 210 -c 2 -i 23 -a 2 -x {0.0 4.0 23 ------- null}
- -t 0.586250000000001 -s 0 -d 2 -p cbr -e 210 -c 2 -i 23 -a 2 -x {0.0 4.0 23 ------- null}
h -t 0.586250000000001 -s 0 -d 2 -p cbr -e 210 -c 2 -i 23 -a 2 -x {0.0 4.0 -1 ------- null}
r -t 0.586720000000001 -s 2 -d 3 -p cbr -e 210 -c 2 -i 16 -a 2 -x {0.0 4.0 16 ------- null}
h -t 0.586720000000001 -s 3 -d 6 -p cbr -e 210 -c 2 -i 16 -a 2 -x {0.0 4.0 16 ------- null}
+ -t 0.586970000000001 -s 3 -d 6 -p cbr -e 210 -c 2 -i 15 -a 2 -x {0.0 4.0 15 ------- null}
- -t 0.586970000000001 -s 3 -d 6 -p cbr -e 210 -c 2 -i 15 -a 2 -x {0.0 4.0 15 ------- null}
h -t 0.586970000000001 -s 3 -d 6 -p cbr -e 210 -c 2 -i 15 -a 2 -x {0.0 4.0 -1 ------- null}
d -t 0.586974000000001 -s 5 -d 6 -p cbr -e 210 -c 2 -i 15 -a 2 -x {0.0 4.0 15 ------- null}
r -t 0.587224000000001 -s 6 -d 4 -p cbr -e 210 -c 2 -i 14 -a 2 -x {0.0 4.0 14 ------- null}
r -t 0.588360000000001 -s 0 -d 2 -p cbr -e 210 -c 2 -i 20 -a 2 -x {0.0 4.0 20 ------- null}
+ -t 0.588360000000001 -s 2 -d 3 -p cbr -e 210 -c 2 -i 20 -a 2 -x {0.0 4.0 20 ------- null}
- -t 0.588360000000001 -s 2 -d 3 -p cbr -e 210 -c 2 -i 20 -a 2 -x {0.0 4.0 20 ------- null}
h -t 0.588360000000001 -s 2 -d 3 -p cbr -e 210 -c 2 -i 20 -a 2 -x {0.0 4.0 -1 ------- null}
+ -t 0.590000000000001 -s 0 -d 2 -p cbr -e 210 -c 2 -i 24 -a 2 -x {0.0 4.0 24 ------- null}
- -t 0.590000000000001 -s 0 -d 2 -p cbr -e 210 -c 2 -i 24 -a 2 -x {0.0 4.0 24 ------- null}
h -t 0.590000000000001 -s 0 -d 2 -p cbr -e 210 -c 2 -i 24 -a 2 -x {0.0 4.0 -1 ------- null}
r -t 0.590470000000001 -s 2 -d 3 -p cbr -e 210 -c 2 -i 17 -a 2 -x {0.0 4.0 17 ------- null}
h -t 0.590470000000001 -s 3 -d 6 -p cbr -e 210 -c 2 -i 17 -a 2 -x {0.0 4.0 17 ------- null}
+ -t 0.590720000000001 -s 3 -d 6 -p cbr -e 210 -c 2 -i 16 -a 2 -x {0.0 4.0 16 ------- null}
- -t 0.590720000000001 -s 3 -d 6 -p cbr -e 210 -c 2 -i 16 -a 2 -x {0.0 4.0 16 ------- null}
h -t 0.590720000000001 -s 3 -d 6 -p cbr -e 210 -c 2 -i 16 -a 2 -x {0.0 4.0 -1 ------- null}
d -t 0.590724000000001 -s 5 -d 6 -p cbr -e 210 -c 2 -i 16 -a 2 -x {0.0 4.0 16 ------- null}
r -t 0.590974000000001 -s 6 -d 4 -p cbr -e 210 -c 2 -i 15 -a 2 -x {0.0 4.0 15 ------- null}
r -t 0.592110000000001 -s 0 -d 2 -p cbr -e 210 -c 2 -i 21 -a 2 -x {0.0 4.0 21 ------- null}
+ -t 0.592110000000001 -s 2 -d 3 -p cbr -e 210 -c 2 -i 21 -a 2 -x {0.0 4.0 21 ------- null}
- -t 0.592110000000001 -s 2 -d 3 -p cbr -e 210 -c 2 -i 21 -a 2 -x {0.0 4.0 21 ------- null}
h -t 0.592110000000001 -s 2 -d 3 -p cbr -e 210 -c 2 -i 21 -a 2 -x {0.0 4.0 -1 ------- null}
+ -t 0.593750000000001 -s 0 -d 2 -p cbr -e 210 -c 2 -i 25 -a 2 -x {0.0 4.0 25 ------- null}
- -t 0.593750000000001 -s 0 -d 2 -p cbr -e 210 -c 2 -i 25 -a 2 -x {0.0 4.0 25 ------- null}
h -t 0.593750000000001 -s 0 -d 2 -p cbr -e 210 -c 2 -i 25 -a 2 -x {0.0 4.0 -1 ------- null}
r -t 0.594220000000001 -s 2 -d 3 -p cbr -e 210 -c 2 -i 18 -a 2 -x {0.0 4.0 18 ------- null}
h -t 0.594220000000001 -s 3 -d 6 -p cbr -e 210 -c 2 -i 18 -a 2 -x {0.0 4.0 18 ------- null}
+ -t 0.594470000000001 -s 3 -d 6 -p cbr -e 210 -c 2 -i 17 -a 2 -x {0.0 4.0 17 ------- null}
- -t 0.594470000000001 -s 3 -d 6 -p cbr -e 210 -c 2 -i 17 -a 2 -x {0.0 4.0 17 ------- null}
h -t 0.594470000000001 -s 3 -d 6 -p cbr -e 210 -c 2 -i 17 -a 2 -x {0.0 4.0 -1 ------- null}
d -t 0.594474000000001 -s 5 -d 6 -p cbr -e 210 -c 2 -i 17 -a 2 -x {0.0 4.0 17 ------- null}
r -t 0.594724000000001 -s 6 -d 4 -p cbr -e 210 -c 2 -i 16 -a 2 -x {0.0 4.0 16 ------- null}
r -t 0.595860000000001 -s 0 -d 2 -p cbr -e 210 -c 2 -i 22 -a 2 -x {0.0 4.0 22 ------- null}
+ -t 0.595860000000001 -s 2 -d 3 -p cbr -e 210 -c 2 -i 22 -a 2 -x {0.0 4.0 22 ------- null}
- -t 0.595860000000001 -s 2 -d 3 -p cbr -e 210 -c 2 -i 22 -a 2 -x {0.0 4.0 22 ------- null}
h -t 0.595860000000001 -s 2 -d 3 -p cbr -e 210 -c 2 -i 22 -a 2 -x {0.0 4.0 -1 ------- null}
+ -t 0.597500000000001 -s 0 -d 2 -p cbr -e 210 -c 2 -i 26 -a 2 -x {0.0 4.0 26 ------- null}
- -t 0.597500000000001 -s 0 -d 2 -p cbr -e 210 -c 2 -i 26 -a 2 -x {0.0 4.0 26 ------- null}
h -t 0.597500000000001 -s 0 -d 2 -p cbr -e 210 -c 2 -i 26 -a 2 -x {0.0 4.0 -1 ------- null}
r -t 0.597970000000001 -s 2 -d 3 -p cbr -e 210 -c 2 -i 19 -a 2 -x {0.0 4.0 19 ------- null}
h -t 0.597970000000001 -s 3 -d 6 -p cbr -e 210 -c 2 -i 19 -a 2 -x {0.0 4.0 19 ------- null}
+ -t 0.598220000000001 -s 3 -d 6 -p cbr -e 210 -c 2 -i 18 -a 2 -x {0.0 4.0 18 ------- null}
- -t 0.598220000000001 -s 3 -d 6 -p cbr -e 210 -c 2 -i 18 -a 2 -x {0.0 4.0 18 ------- null}
h -t 0.598220000000001 -s 3 -d 6 -p cbr -e 210 -c 2 -i 18 -a 2 -x {0.0 4.0 -1 ------- null}
d -t 0.598224000000001 -s 5 -d 6 -p cbr -e 210 -c 2 -i 18 -a 2 -x {0.0 4.0 18 ------- null}
r -t 0.598474000000001 -s 6 -d 4 -p cbr -e 210 -c 2 -i 17 -a 2 -x {0.0 4.0 17 ------- null}
r -t 0.599610000000001 -s 0 -d 2 -p cbr -e 210 -c 2 -i 23 -a 2 -x {0.0 4.0 23 ------- null}
+ -t 0.599610000000001 -s 2 -d 3 -p cbr -e 210 -c 2 -i 23 -a 2 -x {0.0 4.0 23 ------- null}
- -t 0.599610000000001 -s 2 -d 3 -p cbr -e 210 -c 2 -i 23 -a 2 -x {0.0 4.0 23 ------- null}
h -t 0.599610000000001 -s 2 -d 3 -p cbr -e 210 -c 2 -i 23 -a 2 -x {0.0 4.0 -1 ------- null}
+ -t 0.601250000000001 -s 0 -d 2 -p cbr -e 210 -c 2 -i 27 -a 2 -x {0.0 4.0 27 ------- null}
- -t 0.601250000000001 -s 0 -d 2 -p cbr -e 210 -c 2 -i 27 -a 2 -x {0.0 4.0 27 ------- null}
h -t 0.601250000000001 -s 0 -d 2 -p cbr -e 210 -c 2 -i 27 -a 2 -x {0.0 4.0 -1 ------- null}
r -t 0.601720000000001 -s 2 -d 3 -p cbr -e 210 -c 2 -i 20 -a 2 -x {0.0 4.0 20 ------- null}
h -t 0.601720000000001 -s 3 -d 6 -p cbr -e 210 -c 2 -i 20 -a 2 -x {0.0 4.0 20 ------- null}
+ -t 0.601970000000001 -s 3 -d 6 -p cbr -e 210 -c 2 -i 19 -a 2 -x {0.0 4.0 19 ------- null}
- -t 0.601970000000001 -s 3 -d 6 -p cbr -e 210 -c 2 -i 19 -a 2 -x {0.0 4.0 19 ------- null}
h -t 0.601970000000001 -s 3 -d 6 -p cbr -e 210 -c 2 -i 19 -a 2 -x {0.0 4.0 -1 ------- null}
d -t 0.601974000000001 -s 5 -d 6 -p cbr -e 210 -c 2 -i 19 -a 2 -x {0.0 4.0 19 ------- null}
r -t 0.602224000000001 -s 6 -d 4 -p cbr -e 210 -c 2 -i 18 -a 2 -x {0.0 4.0 18 ------- null}
r -t 0.603360000000001 -s 0 -d 2 -p cbr -e 210 -c 2 -i 24 -a 2 -x {0.0 4.0 24 ------- null}
+ -t 0.603360000000001 -s 2 -d 3 -p cbr -e 210 -c 2 -i 24 -a 2 -x {0.0 4.0 24 ------- null}
- -t 0.603360000000001 -s 2 -d 3 -p cbr -e 210 -c 2 -i 24 -a 2 -x {0.0 4.0 24 ------- null}
h -t 0.603360000000001 -s 2 -d 3 -p cbr -e 210 -c 2 -i 24 -a 2 -x {0.0 4.0 -1 ------- null}
+ -t 0.605000000000001 -s 0 -d 2 -p cbr -e 210 -c 2 -i 28 -a 2 -x {0.0 4.0 28 ------- null}
- -t 0.605000000000001 -s 0 -d 2 -p cbr -e 210 -c 2 -i 28 -a 2 -x {0.0 4.0 28 ------- null}
h -t 0.605000000000001 -s 0 -d 2 -p cbr -e 210 -c 2 -i 28 -a 2 -x {0.0 4.0 -1 ------- null}
r -t 0.605470000000001 -s 2 -d 3 -p cbr -e 210 -c 2 -i 21 -a 2 -x {0.0 4.0 21 ------- null}
h -t 0.605470000000001 -s 3 -d 6 -p cbr -e 210 -c 2 -i 21 -a 2 -x {0.0 4.0 21 ------- null}
+ -t 0.605720000000001 -s 3 -d 6 -p cbr -e 210 -c 2 -i 20 -a 2 -x {0.0 4.0 20 ------- null}
- -t 0.605720000000001 -s 3 -d 6 -p cbr -e 210 -c 2 -i 20 -a 2 -x {0.0 4.0 20 ------- null}
h -t 0.605720000000001 -s 3 -d 6 -p cbr -e 210 -c 2 -i 20 -a 2 -x {0.0 4.0 -1 ------- null}
d -t 0.605724000000001 -s 5 -d 6 -p cbr -e 210 -c 2 -i 20 -a 2 -x {0.0 4.0 20 ------- null}
r -t 0.605974000000001 -s 6 -d 4 -p cbr -e 210 -c 2 -i 19 -a 2 -x {0.0 4.0 19 ------- null}
r -t 0.607110000000001 -s 0 -d 2 -p cbr -e 210 -c 2 -i 25 -a 2 -x {0.0 4.0 25 ------- null}
+ -t 0.607110000000001 -s 2 -d 3 -p cbr -e 210 -c 2 -i 25 -a 2 -x {0.0 4.0 25 ------- null}
- -t 0.607110000000001 -s 2 -d 3 -p cbr -e 210 -c 2 -i 25 -a 2 -x {0.0 4.0 25 ------- null}
h -t 0.607110000000001 -s 2 -d 3 -p cbr -e 210 -c 2 -i 25 -a 2 -x {0.0 4.0 -1 ------- null}
+ -t 0.608750000000001 -s 0 -d 2 -p cbr -e 210 -c 2 -i 29 -a 2 -x {0.0 4.0 29 ------- null}
- -t 0.608750000000001 -s 0 -d 2 -p cbr -e 210 -c 2 -i 29 -a 2 -x {0.0 4.0 29 ------- null}
h -t 0.608750000000001 -s 0 -d 2 -p cbr -e 210 -c 2 -i 29 -a 2 -x {0.0 4.0 -1 ------- null}