V -t * -v 1.0a5 -a 0
A -t * -n 1 -p 0 -o 0x7fffffff -c 30 -a 1
A -t * -h 1 -m 1073741823 -s 0
n -t * -a 0 -s 0 -S UP -v circle -c black -i black
n -t * -a 1 -s 1 -S UP -v circle -c black -i black
l -t * -s 0 -d 1 -S UP -r 1000000 -D 2 -c black
+ -t 2 -s 0 -d 1 -p cbr -e 50 -c 0 -i 0 -a 0 -x {0.0 1.0 0 ------- null}
- -t 2 -s 0 -d 1 -p cbr -e 50 -c 0 -i 0 -a 0 -x {0.0 1.0 0 ------- null}
h -t 2 -s 0 -d 1 -p cbr -e 50 -c 0 -i 0 -a 0 -x {0.0 1.0 -1 ------- null}
+ -t 2.002 -s 0 -d 1 -p cbr -e 50 -c 0 -i 1 -a 0 -x {0.0 1.0 1 ------- null}
- -t 2.002 -s 0 -d 1 -p cbr -e 50 -c 0 -i 1 -a 0 -x {0.0 1.0 1 ------- null}
h -t 2.002 -s 0 -d 1 -p cbr -e 50 -c 0 -i 1 -a 0 -x {0.0 1.0 -1 ------- null}
+ -t 2.004 -s 0 -d 1 -p cbr -e 50 -c 0 -i 2 -a 0 -x {0.0 1.0 2 ------- null}
- -t 2.004 -s 0 -d 1 -p cbr -e 50 -c 0 -i 2 -a 0 -x {0.0 1.0 2 ------- null}
h -t 2.004 -s 0 -d 1 -p cbr -e 50 -c 0 -i 2 -a 0 -x {0.0 1.0 -1 ------- null}
+ -t 2.006 -s 0 -d 1 -p cbr -e 50 -c 0 -i 3 -a 0 -x {0.0 1.0 3 ------- null}
- -t 2.006 -s 0 -d 1 -p cbr -e 50 -c 0 -i 3 -a 0 -x {0.0 1.0 3 ------- null}
h -t 2.006 -s 0 -d 1 -p cbr -e 50 -c 0 -i 3 -a 0 -x {0.0 1.0 -1 ------- null}
+ -t 2.008 -s 0 -d 1 -p cbr -e 50 -c 0 -i 4 -a 0 -x {0.0 1.0 4 ------- null}
- -t 2.008 -s 0 -d 1 -p cbr -e 50 -c 0 -i 4 -a 0 -x {0.0 1.0 4 ------- null}
h -t 2.008 -s 0 -d 1 -p cbr -e 50 -c 0 -i 4 -a 0 -x {0.0 1.0 -1 ------- null}
+ -t 2.01 -s 0 -d 1 -p cbr -e 50 -c 0 -i 5 -a 0 -x {0.0 1.0 5 ------- null}
- -t 2.01 -s 0 -d 1 -p cbr -e 50 -c 0 -i 5 -a 0 -x {0.0 1.0 5 ------- null}
h -t 2.01 -s 0 -d 1 -p cbr -e 50 -c 0 -i 5 -a 0 -x {0.0 1.0 -1 ------- null}
+ -t 2.012 -s 0 -d 1 -p cbr -e 50 -c 0 -i 6 -a 0 -x {0.0 1.0 6 ------- null}
- -t 2.012 -s 0 -d 1 -p cbr -e 50 -c 0 -i 6 -a 0 -x {0.0 1.0 6 ------- null}
h -t 2.012 -s 0 -d 1 -p cbr -e 50 -c 0 -i 6 -a 0 -x {0.0 1.0 -1 ------- null}
+ -t 2.014 -s 0 -d 1 -p cbr -e 50 -c 0 -i 7 -a 0 -x {0.0 1.0 7 ------- null}
- -t 2.014 -s 0 -d 1 -p cbr -e 50 -c 0 -i 7 -a 0 -x {0.0 1.0 7 ------- null}
h -t 2.014 -s 0 -d 1 -p cbr -e 50 -c 0 -i 7 -a 0 -x {0.0 1.0 -1 ------- null}
+ -t 2.016 -s 0 -d 1 -p cbr -e 50 -c 0 -i 8 -a 0 -x {0.0 1.0 8 ------- null}
- -t 2.016 -s 0 -d 1 -p cbr -e 50 -c 0 -i 8 -a 0 -x {0.0 1.0 8 ------- null}
h -t 2.016 -s 0 -d 1 -p cbr -e 50 -c 0 -i 8 -a 0 -x {0.0 1.0 -1 ------- null}
+ -t 2.018 -s 0 -d 1 -p cbr -e 50 -c 0 -i 9 -a 0 -x {0.0 1.0 9 ------- null}
- -t 2.018 -s 0 -d 1 -p cbr -e 50 -c 0 -i 9 -a 0 -x {0.0 1.0 9 ------- null}
h -t 2.018 -s 0 -d 1 -p cbr -e 50 -c 0 -i 9 -a 0 -x {0.0 1.0 -1 ------- null}
+ -t 2.02 -s 0 -d 1 -p cbr -e 50 -c 0 -i 10 -a 0 -x {0.0 1.0 10 ------- null}
- -t 2.02 -s 0 -d 1 -p cbr -e 50 -c 0 -i 10 -a 0 -x {0.0 1.0 10 ------- null}
h -t 2.02 -s 0 -d 1 -p cbr -e 50 -c 0 -i 10 -a 0 -x {0.0 1.0 -1 ------- null}
+ -t 2.022 -s 0 -d 1 -p cbr -e 50 -c 0 -i 11 -a 0 -x {0.0 1.0 11 ------- null}
- -t 2.022 -s 0 -d 1 -p cbr -e 50 -c 0 -i 11 -a 0 -x {0.0 1.0 11 ------- null}
h -t 2.022 -s 0 -d 1 -p cbr -e 50 -c 0 -i 11 -a 0 -x {0.0 1.0 -1 ------- null}
+ -t 2.024 -s 0 -d 1 -p cbr -e 50 -c 0 -i 12 -a 0 -x {0.0 1.0 12 ------- null}
- -t 2.024 -s 0 -d 1 -p cbr -e 50 -c 0 -i 12 -a 0 -x {0.0 1.0 12 ------- null}
h -t 2.024 -s 0 -d 1 -p cbr -e 50 -c 0 -i 12 -a 0 -x {0.0 1.0 -1 ------- null}
+ -t 2.026 -s 0 -d 1 -p cbr -e 50 -c 0 -i 13 -a 0 -x {0.0 1.0 13 ------- null}
- -t 2.026 -s 0 -d 1 -p cbr -e 50 -c 0 -i 13 -a 0 -x {0.0 1.0 13 ------- null}
h -t 2.026 -s 0 -d 1 -p cbr -e 50 -c 0 -i 13 -a 0 -x {0.0 1.0 -1 ------- null}
+ -t 2.028 -s 0 -d 1 -p cbr -e 50 -c 0 -i 14 -a 0 -x {0.0 1.0 14 ------- null}
- -t 2.028 -s 0 -d 1 -p cbr -e 50 -c 0 -i 14 -a 0 -x {0.0 1.0 14 ------- null}
h -t 2.028 -s 0 -d 1 -p cbr -e 50 -c 0 -i 14 -a 0 -x {0.0 1.0 -1 ------- null}
+ -t 2.03 -s 0 -d 1 -p cbr -e 50 -c 0 -i 15 -a 0 -x {0.0 1.0 15 ------- null}
- -t 2.03 -s 0 -d 1 -p cbr -e 50 -c 0 -i 15 -a 0 -x {0.0 1.0 15 ------- null}
h -t 2.03 -s 0 -d 1 -p cbr -e 50 -c 0 -i 15 -a 0 -x {0.0 1.0 -1 ------- null}
+ -t 2.032 -s 0 -d 1 -p cbr -e 50 -c 0 -i 16 -a 0 -x {0.0 1.0 16 ------- null}
- -t 2.032 -s 0 -d 1 -p cbr -e 50 -c 0 -i 16 -a 0 -x {0.0 1.0 16 ------- null}
h -t 2.032 -s 0 -d 1 -p cbr -e 50 -c 0 -i 16 -a 0 -x {0.0 1.0 -1 ------- null}
+ -t 2.034 -s 0 -d 1 -p cbr -e 50 -c 0 -i 17 -a 0 -x {0.0 1.0 17 ------- null}
- -t 2.034 -s 0 -d 1 -p cbr -e 50 -c 0 -i 17 -a 0 -x {0.0 1.0 17 ------- null}
h -t 2.034 -s 0 -d 1 -p cbr -e 50 -c 0 -i 17 -a 0 -x {0.0 1.0 -1 ------- null}
+ -t 2.036 -s 0 -d 1 -p cbr -e 50 -c 0 -i 18 -a 0 -x {0.0 1.0 18 ------- null}
- -t 2.036 -s 0 -d 1 -p cbr -e 50 -c 0 -i 18 -a 0 -x {0.0 1.0 18 ------- null}
h -t 2.036 -s 0 -d 1 -p cbr -e 50 -c 0 -i 18 -a 0 -x {0.0 1.0 -1 ------- null}
+ -t 2.038 -s 0 -d 1 -p cbr -e 50 -c 0 -i 19 -a 0 -x {0.0 1.0 19 ------- null}
- -t 2.038 -s 0 -d 1 -p cbr -e 50 -c 0 -i 19 -a 0 -x {0.0 1.0 19 ------- null}
h -t 2.038 -s 0 -d 1 -p cbr -e 50 -c 0 -i 19 -a 0 -x {0.0 1.0 -1 ------- null}
+ -t 2.04 -s 0 -d 1 -p cbr -e 50 -c 0 -i 20 -a 0 -x {0.0 1.0 20 ------- null}
- -t 2.04 -s 0 -d 1 -p cbr -e 50 -c 0 -i 20 -a 0 -x {0.0 1.0 20 ------- null}
h -t 2.04 -s 0 -d 1 -p cbr -e 50 -c 0 -i 20 -a 0 -x {0.0 1.0 -1 ------- null}
+ -t 2.042 -s 0 -d 1 -p cbr -e 50 -c 0 -i 21 -a 0 -x {0.0 1.0 21 ------- null}
- -t 2.042 -s 0 -d 1 -p cbr -e 50 -c 0 -i 21 -a 0 -x {0.0 1.0 21 ------- null}
h -t 2.042 -s 0 -d 1 -p cbr -e 50 -c 0 -i 21 -a 0 -x {0.0 1.0 -1 ------- null}
+ -t 2.044 -s 0 -d 1 -p cbr -e 50 -c 0 -i 22 -a 0 -x {0.0 1.0 22 ------- null}
- -t 2.044 -s 0 -d 1 -p cbr -e 50 -c 0 -i 22 -a 0 -x {0.0 1.0 22 ------- null}
h -t 2.044 -s 0 -d 1 -p cbr -e 50 -c 0 -i 22 -a 0 -x {0.0 1.0 -1 ------- null}
+ -t 2.04599999999999 -s 0 -d 1 -p cbr -e 50 -c 0 -i 23 -a 0 -x {0.0 1.0 23 ------- null}
- -t 2.04599999999999 -s 0 -d 1 -p cbr -e 50 -c 0 -i 23 -a 0 -x {0.0 1.0 23 ------- null}
h -t 2.04599999999999 -s 0 -d 1 -p cbr -e 50 -c 0 -i 23 -a 0 -x {0.0 1.0 -1 ------- null}
+ -t 2.04799999999999 -s 0 -d 1 -p cbr -e 50 -c 0 -i 24 -a 0 -x {0.0 1.0 24 ------- null}
- -t 2.04799999999999 -s 0 -d 1 -p cbr -e 50 -c 0 -i 24 -a 0 -x {0.0 1.0 24 ------- null}
h -t 2.04799999999999 -s 0 -d 1 -p cbr -e 50 -c 0 -i 24 -a 0 -x {0.0 1.0 -1 ------- null}
+ -t 2.04999999999999 -s 0 -d 1 -p cbr -e 50 -c 0 -i 25 -a 0 -x {0.0 1.0 25 ------- null}
- -t 2.04999999999999 -s 0 -d 1 -p cbr -e 50 -c 0 -i 25 -a 0 -x {0.0 1.0 25 ------- null}
h -t 2.04999999999999 -s 0 -d 1 -p cbr -e 50 -c 0 -i 25 -a 0 -x {0.0 1.0 -1 ------- null}
+ -t 2.05199999999999 -s 0 -d 1 -p cbr -e 50 -c 0 -i 26 -a 0 -x {0.0 1.0 26 ------- null}
- -t 2.05199999999999 -s 0 -d 1 -p cbr -e 50 -c 0 -i 26 -a 0 -x {0.0 1.0 26 ------- null}
h -t 2.05199999999999 -s 0 -d 1 -p cbr -e 50 -c 0 -i 26 -a 0 -x {0.0 1.0 -1 ------- null}
+ -t 2.05399999999999 -s 0 -d 1 -p cbr -e 50 -c 0 -i 27 -a 0 -x {0.0 1.0 27 ------- null}
- -t 2.05399999999999 -s 0 -d 1 -p cbr -e 50 -c 0 -i 27 -a 0 -x {0.0 1.0 27 ------- null}
h -t 2.05399999999999 -s 0 -d 1 -p cbr -e 50 -c 0 -i 27 -a 0 -x {0.0 1.0 -1 ------- null}
+ -t 2.05599999999999 -s 0 -d 1 -p cbr -e 50 -c 0 -i 28 -a 0 -x {0.0 1.0 28 ------- null}
- -t 2.05599999999999 -s 0 -d 1 -p cbr -e 50 -c 0 -i 28 -a 0 -x {0.0 1.0 28 ------- null}
h -t 2.05599999999999 -s 0 -d 1 -p cbr -e 50 -c 0 -i 28 -a 0 -x {0.0 1.0 -1 ------- null}
+ -t 2.05799999999999 -s 0 -d 1 -p cbr -e 50 -c 0 -i 29 -a 0 -x {0.0 1.0 29 ------- null}
- -t 2.05799999999999 -s 0 -d 1 -p cbr -e 50 -c 0 -i 29 -a 0 -x {0.0 1.0 29 ------- null}
h -t 2.05799999999999 -s 0 -d 1 -p cbr -e 50 -c 0 -i 29 -a 0 -x {0.0 1.0 -1 ------- null}
+ -t 2.05999999999999 -s 0 -d 1 -p cbr -e 50 -c 0 -i 30 -a 0 -x {0.0 1.0 30 ------- null}
- -t 2.05999999999999 -s 0 -d 1 -p cbr -e 50 -c 0 -i 30 -a 0 -x {0.0 1.0 30 ------- null}
h -t 2.05999999999999 -s 0 -d 1 -p cbr -e 50 -c 0 -i 30 -a 0 -x {0.0 1.0 -1 ------- null}
+ -t 2.06199999999999 -s 0 -d 1 -p cbr -e 50 -c 0 -i 31 -a 0 -x {0.0 1.0 31 ------- null}
- -t 2.06199999999999 -s 0 -d 1 -p cbr -e 50 -c 0 -i 31 -a 0 -x {0.0 1.0 31 ------- null}
h -t 2.06199999999999 -s 0 -d 1 -p cbr -e 50 -c 0 -i 31 -a 0 -x {0.0 1.0 -1 ------- null}
+ -t 2.06399999999999 -s 0 -d 1 -p cbr -e 50 -c 0 -i 32 -a 0 -x {0.0 1.0 32 ------- null}
- -t 2.06399999999999 -s 0 -d 1 -p cbr -e 50 -c 0 -i 32 -a 0 -x {0.0 1.0 32 ------- null}
h -t 2.06399999999999 -s 0 -d 1 -p cbr -e 50 -c 0 -i 32 -a 0 -x {0.0 1.0 -1 ------- null}
+ -t 2.06599999999999 -s 0 -d 1 -p cbr -e 50 -c 0 -i 33 -a 0 -x {0.0 1.0 33 ------- null}
- -t 2.06599999999999 -s 0 -d 1 -p cbr -e 50 -c 0 -i 33 -a 0 -x {0.0 1.0 33 ------- null}
h -t 2.06599999999999 -s 0 -d 1 -p cbr -e 50 -c 0 -i 33 -a 0 -x {0.0 1.0 -1 ------- null}
+ -t 2.06799999999999 -s 0 -d 1 -p cbr -e 50 -c 0 -i 34 -a 0 -x {0.0 1.0 34 ------- null}
- -t 2.06799999999999 -s 0 -d 1 -p cbr -e 50 -c 0 -i 34 -a 0 -x {0.0 1.0 34 ------- null}
h -t 2.06799999999999 -s 0 -d 1 -p cbr -e 50 -c 0 -i 34 -a 0 -x {0.0 1.0 -1 ------- null}
+ -t 2.06999999999999 -s 0 -d 1 -p cbr -e 50 -c 0 -i 35 -a 0 -x {0.0 1.0 35 ------- null}
- -t 2.06999999999999 -s 0 -d 1 -p cbr -e 50 -c 0 -i 35 -a 0 -x {0.0 1.0 35 ------- null}
h -t 2.06999999999999 -s 0 -d 1 -p cbr -e 50 -c 0 -i 35 -a 0 -x {0.0 1.0 -1 ------- null}
+ -t 2.07199999999999 -s 0 -d 1 -p cbr -e 50 -c 0 -i 36 -a 0 -x {0.0 1.0 36 ------- null}
- -t 2.07199999999999 -s 0 -d 1 -p cbr -e 50 -c 0 -i 36 -a 0 -x {0.0 1.0 36 ------- null}
h -t 2.07199999999999 -s 0 -d 1 -p cbr -e 50 -c 0 -i 36 -a 0 -x {0.0 1.0 -1 ------- null}
+ -t 2.07399999999999 -s 0 -d 1 -p cbr -e 50 -c 0 -i 37 -a 0 -x {0.0 1.0 37 ------- null}
- -t 2.07399999999999 -s 0 -d 1 -p cbr -e 50 -c 0 -i 37 -a 0 -x {0.0 1.0 37 ------- null}
h -t 2.07399999999999 -s 0 -d 1 -p cbr -e 50 -c 0 -i 37 -a 0 -x {0.0 1.0 -1 ------- null}
+ -t 2.07599999999999 -s 0 -d 1 -p cbr -e 50 -c 0 -i 38 -a 0 -x {0.0 1.0 38 ------- null}
- -t 2.07599999999999 -s 0 -d 1 -p cbr -e 50 -c 0 -i 38 -a 0 -x {0.0 1.0 38 ------- null}
h -t 2.07599999999999 -s 0 -d 1 -p cbr -e 50 -c 0 -i 38 -a 0 -x {0.0 1.0 -1 ------- null}
+ -t 2.07799999999999 -s 0 -d 1 -p cbr -e 50 -c 0 -i 39 -a 0 -x {0.0 1.0 39 ------- null}
- -t 2.07799999999999 -s 0 -d 1 -p cbr -e 50 -c 0 -i 39 -a 0 -x {0.0 1.0 39 ------- null}
h -t 2.07799999999999 -s 0 -d 1 -p cbr -e 50 -c 0 -i 39 -a 0 -x {0.0 1.0 -1 ------- null}
+ -t 2.07999999999999 -s 0 -d 1 -p cbr -e 50 -c 0 -i 40 -a 0 -x {0.0 1.0 40 ------- null}
- -t 2.07999999999999 -s 0 -d 1 -p cbr -e 50 -c 0 -i 40 -a 0 -x {0.0 1.0 40 ------- null}
h -t 2.07999999999999 -s 0 -d 1 -p cbr -e 50 -c 0 -i 40 -a 0 -x {0.0 1.0 -1 ------- null}
+ -t 2.08199999999999 -s 0 -d 1 -p cbr -e 50 -c 0 -i 41 -a 0 -x {0.0 1.0 41 ------- null}
- -t 2.08199999999999 -s 0 -d 1 -p cbr -e 50 -c 0 -i 41 -a 0 -x {0.0 1.0 41 ------- null}
h -t 2.08199999999999 -s 0 -d 1 -p cbr -e 50 -c 0 -i 41 -a 0 -x {0.0 1.0 -1 ------- null}
+ -t 2.08399999999999 -s 0 -d 1 -p cbr -e 50 -c 0 -i 42 -a 0 -x {0.0 1.0 42 ------- null}
- -t 2.08399999999999 -s 0 -d 1 -p cbr -e 50 -c 0 -i 42 -a 0 -x {0.0 1.0 42 ------- null}
h -t 2.08399999999999 -s 0 -d 1 -p cbr -e 50 -c 0 -i 42 -a 0 -x {0.0 1.0 -1 ------- null}
+ -t 2.08599999999999 -s 0 -d 1 -p cbr -e 50 -c 0 -i 43 -a 0 -x {0.0 1.0 43 ------- null}
- -t 2.08599999999999 -s 0 -d 1 -p cbr -e 50 -c 0 -i 43 -a 0 -x {0.0 1.0 43 ------- null}
h -t 2.08599999999999 -s 0 -d 1 -p cbr -e 50 -c 0 -i 43 -a 0 -x {0.0 1.0 -1 ------- null}
+ -t 2.08799999999999 -s 0 -d 1 -p cbr -e 50 -c 0 -i 44 -a 0 -x {0.0 1.0 44 ------- null}
- -t 2.08799999999999 -s 0 -d 1 -p cbr -e 50 -c 0 -i 44 -a 0 -x {0.0 1.0 44 ------- null}
h -t 2.08799999999999 -s 0 -d 1 -p cbr -e 50 -c 0 -i 44 -a 0 -x {0.0 1.0 -1 ------- null}
+ -t 2.08999999999999 -s 0 -d 1 -p cbr -e 50 -c 0 -i 45 -a 0 -x {0.0 1.0 45 ------- null}
- -t 2.08999999999999 -s 0 -d 1 -p cbr -e 50 -c 0 -i 45 -a 0 -x {0.0 1.0 45 ------- null}
h -t 2.08999999999999 -s 0 -d 1 -p cbr -e 50 -c 0 -i 45 -a 0 -x {0.0 1.0 -1 ------- null}
+ -t 2.09199999999999 -s 0 -d 1 -p cbr -e 50 -c 0 -i 46 -a 0 -x {0.0 1.0 46 ------- null}
- -t 2.09199999999999 -s 0 -d 1 -p cbr -e 50 -c 0 -i 46 -a 0 -x {0.0 1.0 46 ------- null}
h -t 2.09199999999999 -s 0 -d 1 -p cbr -e 50 -c 0 -i 46 -a 0 -x {0.0 1.0 -1 ------- null}
+ -t 2.09399999999999 -s 0 -d 1 -p cbr -e 50 -c 0 -i 47 -a 0 -x {0.0 1.0 47 ------- null}
- -t 2.09399999999999 -s 0 -d 1 -p cbr -e 50 -c 0 -i 47 -a 0 -x {0.0 1.0 47 ------- null}
h -t 2.09399999999999 -s 0 -d 1 -p cbr -e 50 -c 0 -i 47 -a 0 -x {0.0 1.0 -1 ------- null}
+ -t 2.09599999999999 -s 0 -d 1 -p cbr -e 50 -c 0 -i 48 -a 0 -x {0.0 1.0 48 ------- null}
- -t 2.09599999999999 -s 0 -d 1 -p cbr -e 50 -c 0 -i 48 -a 0 -x {0.0 1.0 48 ------- null}
h -t 2.09599999999999 -s 0 -d 1 -p cbr -e 50 -c 0 -i 48 -a 0 -x {0.0 1.0 -1 ------- null}
+ -t 2.09799999999999 -s 0 -d 1 -p cbr -e 50 -c 0 -i 49 -a 0 -x {0.0 1.0 49 ------- null}
- -t 2.09799999999999 -s 0 -d 1 -p cbr -e 50 -c 0 -i 49 -a 0 -x {0.0 1.0 49 ------- null}
h -t 2.09799999999999 -s 0 -d 1 -p cbr -e 50 -c 0 -i 49 -a 0 -x {0.0 1.0 -1 ------- null}
+ -t 2.09999999999999 -s 0 -d 1 -p cbr -e 50 -c 0 -i 50 -a 0 -x {0.0 1.0 50 ------- null}
- -t 2.09999999999999 -s 0 -d 1 -p cbr -e 50 -c 0 -i 50 -a 0 -x {0.0 1.0 50 ------- null}
h -t 2.09999999999999 -s 0 -d 1 -p cbr -e 50 -c 0 -i 50 -a 0 -x {0.0 1.0 -1 ------- null}
+ -t 2.10199999999999 -s 0 -d 1 -p cbr -e 50 -c 0 -i 51 -a 0 -x {0.0 1.0 51 ------- null}
- -t 2.10199999999999 -s 0 -d 1 -p cbr -e 50 -c 0 -i 51 -a 0 -x {0.0 1.0 51 ------- null}
h -t 2.10199999999999 -s 0 -d 1 -p cbr -e 50 -c 0 -i 51 -a 0 -x {0.0 1.0 -1 ------- null}
+ -t 2.10399999999999 -s 0 -d 1 -p cbr -e 50 -c 0 -i 52 -a 0 -x {0.0 1.0 52 ------- null}
- -t 2.10399999999999 -s 0 -d 1 -p cbr -e 50 -c 0 -i 52 -a 0 -x {0.0 1.0 52 ------- null}
h -t 2.10399999999999 -s 0 -d 1 -p cbr -e 50 -c 0 -i 52 -a 0 -x {0.0 1.0 -1 ------- null}
+ -t 2.10599999999999 -s 0 -d 1 -p cbr -e 50 -c 0 -i 53 -a 0 -x {0.0 1.0 53 ------- null}
- -t 2.10599999999999 -s 0 -d 1 -p cbr -e 50 -c 0 -i 53 -a 0 -x {0.0 1.0 53 ------- null}
h -t 2.10599999999999 -s 0 -d 1 -p cbr -e 50 -c 0 -i 53 -a 0 -x {0.0 1.0 -1 ------- null}
+ -t 2.10799999999999 -s 0 -d 1 -p cbr -e 50 -c 0 -i 54 -a 0 -x {0.0 1.0 54 ------- null}
- -t 2.10799999999999 -s 0 -d 1 -p cbr -e 50 -c 0 -i 54 -a 0 -x {0.0 1.0 54 ------- null}
h -t 2.10799999999999 -s 0 -d 1 -p cbr -e 50 -c 0 -i 54 -a 0 -x {0.0 1.0 -1 ------- null}
+ -t 2.10999999999999 -s 0 -d 1 -p cbr -e 50 -c 0 -i 55 -a 0 -x {0.0 1.0 55 ------- null}
- -t 2.10999999999999 -s 0 -d 1 -p cbr -e 50 -c 0 -i 55 -a 0 -x {0.0 1.0 55 ------- null}
h -t 2.10999999999999 -s 0 -d 1 -p cbr -e 50 -c 0 -i 55 -a 0 -x {0.0 1.0 -1 ------- null}
+ -t 2.11199999999999 -s 0 -d 1 -p cbr -e 50 -c 0 -i 56 -a 0 -x {0.0 1.0 56 ------- null}
- -t 2.11199999999999 -s 0 -d 1 -p cbr -e 50 -c 0 -i 56 -a 0 -x {0.0 1.0 56 ------- null}
h -t 2.11199999999999 -s 0 -d 1 -p cbr -e 50 -c 0 -i 56 -a 0 -x {0.0 1.0 -1 ------- null}
+ -t 2.11399999999999 -s 0 -d 1 -p cbr -e 50 -c 0 -i 57 -a 0 -x {0.0 1.0 57 ------- null}
- -t 2.11399999999999 -s 0 -d 1 -p cbr -e 50 -c 0 -i 57 -a 0 -x {0.0 1.0 57 ------- null}
h -t 2.11399999999999 -s 0 -d 1 -p cbr -e 50 -c 0 -i 57 -a 0 -x {0.0 1.0 -1 ------- null}
+ -t 2.11599999999999 -s 0 -d 1 -p cbr -e 50 -c 0 -i 58 -a 0 -x {0.0 1.0 58 ------- null}
- -t 2.11599999999999 -s 0 -d 1 -p cbr -e 50 -c 0 -i 58 -a 0 -x {0.0 1.0 58 ------- null}
h -t 2.11599999999999 -s 0 -d 1 -p cbr -e 50 -c 0 -i 58 -a 0 -x {0.0 1.0 -1 ------- null}
+ -t 2.11799999999999 -s 0 -d 1 -p cbr -e 50 -c 0 -i 59 -a 0 -x {0.0 1.0 59 ------- null}
- -t 2.11799999999999 -s 0 -d 1 -p cbr -e 50 -c 0 -i 59 -a 0 -x {0.0 1.0 59 ------- null}
h -t 2.11799999999999 -s 0 -d 1 -p cbr -e 50 -c 0 -i 59 -a 0 -x {0.0 1.0 -1 ------- null}
+ -t 2.11999999999999 -s 0 -d 1 -p cbr -e 50 -c 0 -i 60 -a 0 -x {0.0 1.0 60 ------- null}
- -t 2.11999999999999 -s 0 -d 1 -p cbr -e 50 -c 0 -i 60 -a 0 -x {0.0 1.0 60 ------- null}
h -t 2.11999999999999 -s 0 -d 1 -p cbr -e 50 -c 0 -i 60 -a 0 -x {0.0 1.0 -1 ------- null}
+ -t 2.12199999999999 -s 0 -d 1 -p cbr -e 50 -c 0 -i 61 -a 0 -x {0.0 1.0 61 ------- null}
- -t 2.12199999999999 -s 0 -d 1 -p cbr -e 50 -c 0 -i 61 -a 0 -x {0.0 1.0 61 ------- null}
h -t 2.12199999999999 -s 0 -d 1 -p cbr -e 50 -c 0 -i 61 -a 0 -x {0.0 1.0 -1 ------- null}
+ -t 2.12399999999999 -s 0 -d 1 -p cbr -e 50 -c 0 -i 62 -a 0 -x {0.0 1.0 62 ------- null}
- -t 2.12399999999999 -s 0 -d 1 -p cbr -e 50 -c 0 -i 62 -a 0 -x {0.0 1.0 62 ------- null}
h -t 2.12399999999999 -s 0 -d 1 -p cbr -e 50 -c 0 -i 62 -a 0 -x {0.0 1.0 -1 ------- null}
+ -t 2.12599999999999 -s 0 -d 1 -p cbr -e 50 -c 0 -i 63 -a 0 -x {0.0 1.0 63 ------- null}
- -t 2.12599999999999 -s 0 -d 1 -p cbr -e 50 -c 0 -i 63 -a 0 -x {0.0 1.0 63 ------- null}
h -t 2.12599999999999 -s 0 -d 1 -p cbr -e 50 -c 0 -i 63 -a 0 -x {0.0 1.0 -1 ------- null}
+ -t 2.12799999999999 -s 0 -d 1 -p cbr -e 50 -c 0 -i 64 -a 0 -x {0.0 1.0 64 ------- null}
- -t 2.12799999999999 -s 0 -d 1 -p cbr -e 50 -c 0 -i 64 -a 0 -x {0.0 1.0 64 ------- null}
h -t 2.12799999999999 -s 0 -d 1 -p cbr -e 50 -c 0 -i 64 -a 0 -x {0.0 1.0 -1 ------- null}
+ -t 2.12999999999999 -s 0 -d 1 -p cbr -e 50 -c 0 -i 65 -a 0 -x {0.0 1.0 65 ------- null}
- -t 2.12999999999999 -s 0 -d 1 -p cbr -e 50 -c 0 -i 65 -a 0 -x {0.0 1.0 65 ------- null}
h -t 2.12999999999999 -s 0 -d 1 -p cbr -e 50 -c 0 -i 65 -a 0 -x {0.0 1.0 -1 ------- null}
+ -t 2.13199999999999 -s 0 -d 1 -p cbr -e 50 -c 0 -i 66 -a 0 -x {0.0 1.0 66 ------- null}
- -t 2.13199999999999 -s 0 -d 1 -p cbr -e 50 -c 0 -i 66 -a 0 -x {0.0 1.0 66 ------- null}
h -t 2.13199999999999 -s 0 -d 1 -p cbr -e 50 -c 0 -i 66 -a 0 -x {0.0 1.0 -1 ------- null}
+ -t 2.13399999999999 -s 0 -d 1 -p cbr -e 50 -c 0 -i 67 -a 0 -x {0.0 1.0 67 ------- null}
- -t 2.13399999999999 -s 0 -d 1 -p cbr -e 50 -c 0 -i 67 -a 0 -x {0.0 1.0 67 ------- null}
h -t 2.13399999999999 -s 0 -d 1 -p cbr -e 50 -c 0 -i 67 -a 0 -x {0.0 1.0 -1 ------- null}
+ -t 2.13599999999999 -s 0 -d 1 -p cbr -e 50 -c 0 -i 68 -a 0 -x {0.0 1.0 68 ------- null}
- -t 2.13599999999999 -s 0 -d 1 -p cbr -e 50 -c 0 -i 68 -a 0 -x {0.0 1.0 68 ------- null}
h -t 2.13599999999999 -s 0 -d 1 -p cbr -e 50 -c 0 -i 68 -a 0 -x {0.0 1.0 -1 ------- null}
+ -t 2.13799999999998 -s 0 -d 1 -p cbr -e 50 -c 0 -i 69 -a 0 -x {0.0 1.0 69 ------- null}
- -t 2.13799999999998 -s 0 -d 1 -p cbr -e 50 -c 0 -i 69 -a 0 -x {0.0 1.0 69 ------- null}
h -t 2.13799999999998 -s 0 -d 1 -p cbr -e 50 -c 0 -i 69 -a 0 -x {0.0 1.0 -1 ------- null}
+ -t 2.13999999999998 -s 0 -d 1 -p cbr -e 50 -c 0 -i 70 -a 0 -x {0.0 1.0 70 ------- null}
- -t 2.13999999999998 -s 0 -d 1 -p cbr -e 50 -c 0 -i 70 -a 0 -x {0.0 1.0 70 ------- null}
h -t 2.13999999999998 -s 0 -d 1 -p cbr -e 50 -c 0 -i 70 -a 0 -x {0.0 1.0 -1 ------- null}
+ -t 2.14199999999998 -s 0 -d 1 -p cbr -e 50 -c 0 -i 71 -a 0 -x {0.0 1.0 71 ------- null}
- -t 2.14199999999998 -s 0 -d 1 -p cbr -e 50 -c 0 -i 71 -a 0 -x {0.0 1.0 71 ------- null}
h -t 2.14199999999998 -s 0 -d 1 -p cbr -e 50 -c 0 -i 71 -a 0 -x {0.0 1.0 -1 ------- null}
+ -t 2.14399999999998 -s 0 -d 1 -p cbr -e 50 -c 0 -i 72 -a 0 -x {0.0 1.0 72 ------- null}
- -t 2.14399999999998 -s 0 -d 1 -p cbr -e 50 -c 0 -i 72 -a 0 -x {0.0 1.0 72 ------- null}
h -t 2.14399999999998 -s 0 -d 1 -p cbr -e 50 -c 0 -i 72 -a 0 -x {0.0 1.0 -1 ------- null}
+ -t 2.14599999999998 -s 0 -d 1 -p cbr -e 50 -c 0 -i 73 -a 0 -x {0.0 1.0 73 ------- null}
- -t 2.14599999999998 -s 0 -d 1 -p cbr -e 50 -c 0 -i 73 -a 0 -x {0.0 1.0 73 ------- null}
h -t 2.14599999999998 -s 0 -d 1 -p cbr -e 50 -c 0 -i 73 -a 0 -x {0.0 1.0 -1 ------- null}
+ -t 2.14799999999998 -s 0 -d 1 -p cbr -e 50 -c 0 -i 74 -a 0 -x {0.0 1.0 74 ------- null}
- -t 2.14799999999998 -s 0 -d 1 -p cbr -e 50 -c 0 -i 74 -a 0 -x {0.0 1.0 74 ------- null}
h -t 2.14799999999998 -s 0 -d 1 -p cbr -e 50 -c 0 -i 74 -a 0 -x {0.0 1.0 -1 ------- null}
+ -t 2.14999999999998 -s 0 -d 1 -p cbr -e 50 -c 0 -i 75 -a 0 -x {0.0 1.0 75 ------- null}
- -t 2.14999999999998 -s 0 -d 1 -p cbr -e 50 -c 0 -i 75 -a 0 -x {0.0 1.0 75 ------- null}
h -t 2.14999999999998 -s 0 -d 1 -p cbr -e 50 -c 0 -i 75 -a 0 -x {0.0 1.0 -1 ------- null}
+ -t 2.15199999999998 -s 0 -d 1 -p cbr -e 50 -c 0 -i 76 -a 0 -x {0.0 1.0 76 ------- null}
- -t 2.15199999999998 -s 0 -d 1 -p cbr -e 50 -c 0 -i 76 -a 0 -x {0.0 1.0 76 ------- null}
h -t 2.15199999999998 -s 0 -d 1 -p cbr -e 50 -c 0 -i 76 -a 0 -x {0.0 1.0 -1 ------- null}
+ -t 2.15399999999998 -s 0 -d 1 -p cbr -e 50 -c 0 -i 77 -a 0 -x {0.0 1.0 77 ------- null}
- -t 2.15399999999998 -s 0 -d 1 -p cbr -e 50 -c 0 -i 77 -a 0 -x {0.0 1.0 77 ------- null}
h -t 2.15399999999998 -s 0 -d 1 -p cbr -e 50 -c 0 -i 77 -a 0 -x {0.0 1.0 -1 ------- null}
+ -t 2.15599999999998 -s 0 -d 1 -p cbr -e 50 -c 0 -i 78 -a 0 -x {0.0 1.0 78 ------- null}
- -t 2.15599999999998 -s 0 -d 1 -p cbr -e 50 -c 0 -i 78 -a 0 -x {0.0 1.0 78 ------- null}
h -t 2.15599999999998 -s 0 -d 1 -p cbr -e 50 -c 0 -i 78 -a 0 -x {0.0 1.0 -1 ------- null}
+ -t 2.15799999999998 -s 0 -d 1 -p cbr -e 50 -c 0 -i 79 -a 0 -x {0.0 1.0 79 ------- null}
- -t 2.15799999999998 -s 0 -d 1 -p cbr -e 50 -c 0 -i 79 -a 0 -x {0.0 1.0 79 ------- null}
h -t 2.15799999999998 -s 0 -d 1 -p cbr -e 50 -c 0 -i 79 -a 0 -x {0.0 1.0 -1 ------- null}
+ -t 2.15999999999998 -s 0 -d 1 -p cbr -e 50 -c 0 -i 80 -a 0 -x {0.0 1.0 80 ------- null}
- -t 2.15999999999998 -s 0 -d 1 -p cbr -e 50 -c 0 -i 80 -a 0 -x {0.0 1.0 80 ------- null}
h -t 2.15999999999998 -s 0 -d 1 -p cbr -e 50 -c 0 -i 80 -a 0 -x {0.0 1.0 -1 ------- null}
+ -t 2.16199999999998 -s 0 -d 1 -p cbr -e 50 -c 0 -i 81 -a 0 -x {0.0 1.0 81 ------- null}
- -t 2.16199999999998 -s 0 -d 1 -p cbr -e 50 -c 0 -i 81 -a 0 -x {0.0 1.0 81 ------- null}
h -t 2.16199999999998 -s 0 -d 1 -p cbr -e 50 -c 0 -i 81 -a 0 -x {0.0 1.0 -1 ------- null}
+ -t 2.16399999999998 -s 0 -d 1 -p cbr -e 50 -c 0 -i 82 -a 0 -x {0.0 1.0 82 ------- null}
- -t 2.16399999999998 -s 0 -d 1 -p cbr -e 50 -c 0 -i 82 -a 0 -x {0.0 1.0 82 ------- null}
h -t 2.16399999999998 -s 0 -d 1 -p cbr -e 50 -c 0 -i 82 -a 0 -x {0.0 1.0 -1 ------- null}
+ -t 2.16599999999998 -s 0 -d 1 -p cbr -e 50 -c 0 -i 83 -a 0 -x {0.0 1.0 83 ------- null}
- -t 2.16599999999998 -s 0 -d 1 -p cbr -e 50 -c 0 -i 83 -a 0 -x {0.0 1.0 83 ------- null}
h -t 2.16599999999998 -s 0 -d 1 -p cbr -e 50 -c 0 -i 83 -a 0 -x {0.0 1.0 -1 ------- null}
+ -t 2.16799999999998 -s 0 -d 1 -p cbr -e 50 -c 0 -i 84 -a 0 -x {0.0 1.0 84 ------- null}
- -t 2.16799999999998 -s 0 -d 1 -p cbr -e 50 -c 0 -i 84 -a 0 -x {0.0 1.0 84 ------- null}
h -t 2.16799999999998 -s 0 -d 1 -p cbr -e 50 -c 0 -i 84 -a 0 -x {0.0 1.0 -1 ------- null}
+ -t 2.16999999999998 -s 0 -d 1 -p cbr -e 50 -c 0 -i 85 -a 0 -x {0.0 1.0 85 ------- null}
- -t 2.16999999999998 -s 0 -d 1 -p cbr -e 50 -c 0 -i 85 -a 0 -x {0.0 1.0 85 ------- null}
h -t 2.16999999999998 -s 0 -d 1 -p cbr -e 50 -c 0 -i 85 -a 0 -x {0.0 1.0 -1 ------- null}
+ -t 2.17199999999998 -s 0 -d 1 -p cbr -e 50 -c 0 -i 86 -a 0 -x {0.0 1.0 86 ------- null}
- -t 2.17199999999998 -s 0 -d 1 -p cbr -e 50 -c 0 -i 86 -a 0 -x {0.0 1.0 86 ------- null}
h -t 2.17199999999998 -s 0 -d 1 -p cbr -e 50 -c 0 -i 86 -a 0 -x {0.0 1.0 -1 ------- null}
+ -t 2.17399999999998 -s 0 -d 1 -p cbr -e 50 -c 0 -i 87 -a 0 -x {0.0 1.0 87 ------- null}
- -t 2.17399999999998 -s 0 -d 1 -p cbr -e 50 -c 0 -i 87 -a 0 -x {0.0 1.0 87 ------- null}
h -t 2.17399999999998 -s 0 -d 1 -p cbr -e 50 -c 0 -i 87 -a 0 -x {0.0 1.0 -1 ------- null}
+ -t 2.17599999999998 -s 0 -d 1 -p cbr -e 50 -c 0 -i 88 -a 0 -x {0.0 1.0 88 ------- null}
- -t 2.17599999999998 -s 0 -d 1 -p cbr -e 50 -c 0 -i 88 -a 0 -x {0.0 1.0 88 ------- null}
h -t 2.17599999999998 -s 0 -d 1 -p cbr -e 50 -c 0 -i 88 -a 0 -x {0.0 1.0 -1 ------- null}
+ -t 2.17799999999998 -s 0 -d 1 -p cbr -e 50 -c 0 -i 89 -a 0 -x {0.0 1.0 89 ------- null}
- -t 2.17799999999998 -s 0 -d 1 -p cbr -e 50 -c 0 -i 89 -a 0 -x {0.0 1.0 89 ------- null}
h -t 2.17799999999998 -s 0 -d 1 -p cbr -e 50 -c 0 -i 89 -a 0 -x {0.0 1.0 -1 ------- null}
+ -t 2.17999999999998 -s 0 -d 1 -p cbr -e 50 -c 0 -i 90 -a 0 -x {0.0 1.0 90 ------- null}
- -t 2.17999999999998 -s 0 -d 1 -p cbr -e 50 -c 0 -i 90 -a 0 -x {0.0 1.0 90 ------- null}
h -t 2.17999999999998 -s 0 -d 1 -p cbr -e 50 -c 0 -i 90 -a 0 -x {0.0 1.0 -1 ------- null}
+ -t 2.18199999999998 -s 0 -d 1 -p cbr -e 50 -c 0 -i 91 -a 0 -x {0.0 1.0 91 ------- null}
- -t 2.18199999999998 -s 0 -d 1 -p cbr -e 50 -c 0 -i 91 -a 0 -x {0.0 1.0 91 ------- null}
h -t 2.18199999999998 -s 0 -d 1 -p cbr -e 50 -c 0 -i 91 -a 0 -x {0.0 1.0 -1 ------- null}
+ -t 2.18399999999998 -s 0 -d 1 -p cbr -e 50 -c 0 -i 92 -a 0 -x {0.0 1.0 92 ------- null}
- -t 2.18399999999998 -s 0 -d 1 -p cbr -e 50 -c 0 -i 92 -a 0 -x {0.0 1.0 92 ------- null}
h -t 2.18399999999998 -s 0 -d 1 -p cbr -e 50 -c 0 -i 92 -a 0 -x {0.0 1.0 -1 ------- null}
+ -t 2.18599999999998 -s 0 -d 1 -p cbr -e 50 -c 0 -i 93 -a 0 -x {0.0 1.0 93 ------- null}
- -t 2.18599999999998 -s 0 -d 1 -p cbr -e 50 -c 0 -i 93 -a 0 -x {0.0 1.0 93 ------- null}
h -t 2.18599999999998 -s 0 -d 1 -p cbr -e 50 -c 0 -i 93 -a 0 -x {0.0 1.0 -1 ------- null}
+ -t 2.18799999999998 -s 0 -d 1 -p cbr -e 50 -c 0 -i 94 -a 0 -x {0.0 1.0 94 ------- null}
- -t 2.18799999999998 -s 0 -d 1 -p cbr -e 50 -c 0 -i 94 -a 0 -x {0.0 1.0 94 ------- null}
h -t 2.18799999999998 -s 0 -d 1 -p cbr -e 50 -c 0 -i 94 -a 0 -x {0.0 1.0 -1 ------- null}
+ -t 2.18999999999998 -s 0 -d 1 -p cbr -e 50 -c 0 -i 95 -a 0 -x {0.0 1.0 95 ------- null}
- -t 2.18999999999998 -s 0 -d 1 -p cbr -e 50 -c 0 -i 95 -a 0 -x {0.0 1.0 95 ------- null}
h -t 2.18999999999998 -s 0 -d 1 -p cbr -e 50 -c 0 -i 95 -a 0 -x {0.0 1.0 -1 ------- null}
+ -t 2.19199999999998 -s 0 -d 1 -p cbr -e 50 -c 0 -i 96 -a 0 -x {0.0 1.0 96 ------- null}
- -t 2.19199999999998 -s 0 -d 1 -p cbr -e 50 -c 0 -i 96 -a 0 -x {0.0 1.0 96 ------- null}
h -t 2.19199999999998 -s 0 -d 1 -p cbr -e 50 -c 0 -i 96 -a 0 -x {0.0 1.0 -1 ------- null}
+ -t 2.19399999999998 -s 0 -d 1 -p cbr -e 50 -c 0 -i 97 -a 0 -x {0.0 1.0 97 ------- null}
- -t 2.19399999999998 -s 0 -d 1 -p cbr -e 50 -c 0 -i 97 -a 0 -x {0.0 1.0 97 ------- null}
h -t 2.19399999999998 -s 0 -d 1 -p cbr -e 50 -c 0 -i 97 -a 0 -x {0.0 1.0 -1 ------- null}
+ -t 2.19599999999998 -s 0 -d 1 -p cbr -e 50 -c 0 -i 98 -a 0 -x {0.0 1.0 98 ------- null}
- -t 2.19599999999998 -s 0 -d 1 -p cbr -e 50 -c 0 -i 98 -a 0 -x {0.0 1.0 98 ------- null}
h -t 2.19599999999998 -s 0 -d 1 -p cbr -e 50 -c 0 -i 98 -a 0 -x {0.0 1.0 -1 ------- null}
+ -t 2.19799999999998 -s 0 -d 1 -p cbr -e 50 -c 0 -i 99 -a 0 -x {0.0 1.0 99 ------- null}
- -t 2.19799999999998 -s 0 -d 1 -p cbr -e 50 -c 0 -i 99 -a 0 -x {0.0 1.0 99 ------- null}
h -t 2.19799999999998 -s 0 -d 1 -p cbr -e 50 -c 0 -i 99 -a 0 -x {0.0 1.0 -1 ------- null}
+ -t 2.19999999999998 -s 0 -d 1 -p cbr -e 50 -c 0 -i 100 -a 0 -x {0.0 1.0 100 ------- null}
- -t 2.19999999999998 -s 0 -d 1 -p cbr -e 50 -c 0 -i 100 -a 0 -x {0.0 1.0 100 ------- null}
h -t 2.19999999999998 -s 0 -d 1 -p cbr -e 50 -c 0 -i 100 -a 0 -x {0.0 1.0 -1 ------- null}
+ -t 2.20199999999998 -s 0 -d 1 -p cbr -e 50 -c 0 -i 101 -a 0 -x {0.0 1.0 101 ------- null}
- -t 2.20199999999998 -s 0 -d 1 -p cbr -e 50 -c 0 -i 101 -a 0 -x {0.0 1.0 101 ------- null}
h -t 2.20199999999998 -s 0 -d 1 -p cbr -e 50 -c 0 -i 101 -a 0 -x {0.0 1.0 -1 ------- null}
+ -t 2.20399999999998 -s 0 -d 1 -p cbr -e 50 -c 0 -i 102 -a 0 -x {0.0 1.0 102 ------- null}
- -t 2.20399999999998 -s 0 -d 1 -p cbr -e 50 -c 0 -i 102 -a 0 -x {0.0 1.0 102 ------- null}
h -t 2.20399999999998 -s 0 -d 1 -p cbr -e 50 -c 0 -i 102 -a 0 -x {0.0 1.0 -1 ------- null}
+ -t 2.20599999999998 -s 0 -d 1 -p cbr -e 50 -c 0 -i 103 -a 0 -x {0.0 1.0 103 ------- null}
- -t 2.20599999999998 -s 0 -d 1 -p cbr -e 50 -c 0 -i 103 -a 0 -x {0.0 1.0 103 ------- null}
h -t 2.20599999999998 -s 0 -d 1 -p cbr -e 50 -c 0 -i 103 -a 0 -x {0.0 1.0 -1 ------- null}
+ -t 2.20799999999998 -s 0 -d 1 -p cbr -e 50 -c 0 -i 104 -a 0 -x {0.0 1.0 104 ------- null}
- -t 2.20799999999998 -s 0 -d 1 -p cbr -e 50 -c 0 -i 104 -a 0 -x {0.0 1.0 104 ------- null}
h -t 2.20799999999998 -s 0 -d 1 -p cbr -e 50 -c 0 -i 104 -a 0 -x {0.0 1.0 -1 ------- null}
+ -t 2.20999999999998 -s 0 -d 1 -p cbr -e 50 -c 0 -i 105 -a 0 -x {0.0 1.0 105 ------- null}
- -t 2.20999999999998 -s 0 -d 1 -p cbr -e 50 -c 0 -i 105 -a 0 -x {0.0 1.0 105 ------- null}
h -t 2.20999999999998 -s 0 -d 1 -p cbr -e 50 -c 0 -i 105 -a 0 -x {0.0 1.0 -1 ------- null}
+ -t 2.21199999999998 -s 0 -d 1 -p cbr -e 50 -c 0 -i 106 -a 0 -x {0.0 1.0 106 ------- null}
- -t 2.21199999999998 -s 0 -d 1 -p cbr -e 50 -c 0 -i 106 -a 0 -x {0.0 1.0 106 ------- null}
h -t 2.21199999999998 -s 0 -d 1 -p cbr -e 50 -c 0 -i 106 -a 0 -x {0.0 1.0 -1 ------- null}
+ -t 2.21399999999998 -s 0 -d 1 -p cbr -e 50 -c 0 -i 107 -a 0 -x {0.0 1.0 107 ------- null}
- -t 2.21399999999998 -s 0 -d 1 -p cbr -e 50 -c 0 -i 107 -a 0 -x {0.0 1.0 107 ------- null}
h -t 2.21399999999998 -s 0 -d 1 -p cbr -e 50 -c 0 -i 107 -a 0 -x {0.0 1.0 -1 ------- null}
+ -t 2.21599999999998 -s 0 -d 1 -p cbr -e 50 -c 0 -i 108 -a 0 -x {0.0 1.0 108 ------- null}
- -t 2.21599999999998 -s 0 -d 1 -p cbr -e 50 -c 0 -i 108 -a 0 -x {0.0 1.0 108 ------- null}
h -t 2.21599999999998 -s 0 -d 1 -p cbr -e 50 -c 0 -i 108 -a 0 -x {0.0 1.0 -1 ------- null}
+ -t 2.21799999999998 -s 0 -d 1 -p cbr -e 50 -c 0 -i 109 -a 0 -x {0.0 1.0 109 ------- null}
- -t 2.21799999999998 -s 0 -d 1 -p cbr -e 50 -c 0 -i 109 -a 0 -x {0.0 1.0 109 ------- null}
h -t 2.21799999999998 -s 0 -d 1 -p cbr -e 50 -c 0 -i 109 -a 0 -x {0.0 1.0 -1 ------- null}
+ -t 2.21999999999998 -s 0 -d 1 -p cbr -e 50 -c 0 -i 110 -a 0 -x {0.0 1.0 110 ------- null}
- -t 2.21999999999998 -s 0 -d 1 -p cbr -e 50 -c 0 -i 110 -a 0 -x {0.0 1.0 110 ------- null}
h -t 2.21999999999998 -s 0 -d 1 -p cbr -e 50 -c 0 -i 110 -a 0 -x {0.0 1.0 -1 ------- null}
+ -t 2.22199999999998 -s 0 -d 1 -p cbr -e 50 -c 0 -i 111 -a 0 -x {0.0 1.0 111 ------- null}
- -t 2.22199999999998 -s 0 -d 1 -p cbr -e 50 -c 0 -i 111 -a 0 -x {0.0 1.0 111 ------- null}
h -t 2.22199999999998 -s 0 -d 1 -p cbr -e 50 -c 0 -i 111 -a 0 -x {0.0 1.0 -1 ------- null}
+ -t 2.22399999999998 -s 0 -d 1 -p cbr -e 50 -c 0 -i 112 -a 0 -x {0.0 1.0 112 ------- null}
- -t 2.22399999999998 -s 0 -d 1 -p cbr -e 50 -c 0 -i 112 -a 0 -x {0.0 1.0 112 ------- null}
h -t 2.22399999999998 -s 0 -d 1 -p cbr -e 50 -c 0 -i 112 -a 0 -x {0.0 1.0 -1 ------- null}