+ 0.5 0 2 cbr 210 ------- 2 0.0 4.0 0 0
- 0.5 0 2 cbr 210 ------- 2 0.0 4.0 0 0
+ 0.50375 0 2 cbr 210 ------- 2 0.0 4.0 1 1
- 0.50375 0 2 cbr 210 ------- 2 0.0 4.0 1 1
+ 0.5075 0 2 cbr 210 ------- 2 0.0 4.0 2 2
- 0.5075 0 2 cbr 210 ------- 2 0.0 4.0 2 2
+ 0.51125 0 2 cbr 210 ------- 2 0.0 4.0 3 3
- 0.51125 0 2 cbr 210 ------- 2 0.0 4.0 3 3
r 0.51336 0 2 cbr 210 ------- 2 0.0 4.0 0 0
+ 0.51336 2 3 cbr 210 ------- 2 0.0 4.0 0 0
- 0.51336 2 3 cbr 210 ------- 2 0.0 4.0 0 0
+ 0.515 0 2 cbr 210 ------- 2 0.0 4.0 4 4
- 0.515 0 2 cbr 210 ------- 2 0.0 4.0 4 4
r 0.51711 0 2 cbr 210 ------- 2 0.0 4.0 1 1
+ 0.51711 2 3 cbr 210 ------- 2 0.0 4.0 1 1
- 0.51711 2 3 cbr 210 ------- 2 0.0 4.0 1 1
+ 0.51875 0 2 cbr 210 ------- 2 0.0 4.0 5 5
- 0.51875 0 2 cbr 210 ------- 2 0.0 4.0 5 5
r 0.52086 0 2 cbr 210 ------- 2 0.0 4.0 2 2
+ 0.52086 2 3 cbr 210 ------- 2 0.0 4.0 2 2
- 0.52086 2 3 cbr 210 ------- 2 0.0 4.0 2 2
+ 0.5225 0 2 cbr 210 ------- 2 0.0 4.0 6 6
- 0.5225 0 2 cbr 210 ------- 2 0.0 4.0 6 6
r 0.52461 0 2 cbr 210 ------- 2 0.0 4.0 3 3
+ 0.52461 2 3 cbr 210 ------- 2 0.0 4.0 3 3
- 0.52461 2 3 cbr 210 ------- 2 0.0 4.0 3 3
+ 0.52625 0 2 cbr 210 ------- 2 0.0 4.0 7 7
- 0.52625 0 2 cbr 210 ------- 2 0.0 4.0 7 7
r 0.52672 2 3 cbr 210 ------- 2 0.0 4.0 0 0
h 0.52672 3 6 cbr 210 ------- 2 0.0 4.0 0 0
r 0.52836 0 2 cbr 210 ------- 2 0.0 4.0 4 4
+ 0.52836 2 3 cbr 210 ------- 2 0.0 4.0 4 4
- 0.52836 2 3 cbr 210 ------- 2 0.0 4.0 4 4
+ 0.53 0 2 cbr 210 ------- 2 0.0 4.0 8 8
- 0.53 0 2 cbr 210 ------- 2 0.0 4.0 8 8
r 0.53047 2 3 cbr 210 ------- 2 0.0 4.0 1 1
h 0.53047 3 6 cbr 210 ------- 2 0.0 4.0 1 1
+ 0.53072 3 6 cbr 210 ------- 2 0.0 4.0 0 0
- 0.53072 3 6 cbr 210 ------- 2 0.0 4.0 0 0
d 0.530724 5 6 cbr 210 ------- 2 0.0 4.0 0 0
r 0.53211 0 2 cbr 210 ------- 2 0.0 4.0 5 5
+ 0.53211 2 3 cbr 210 ------- 2 0.0 4.0 5 5
- 0.53211 2 3 cbr 210 ------- 2 0.0 4.0 5 5
+ 0.53375 0 2 cbr 210 ------- 2 0.0 4.0 9 9
- 0.53375 0 2 cbr 210 ------- 2 0.0 4.0 9 9
r 0.53422 2 3 cbr 210 ------- 2 0.0 4.0 2 2
h 0.53422 3 6 cbr 210 ------- 2 0.0 4.0 2 2
+ 0.53447 3 6 cbr 210 ------- 2 0.0 4.0 1 1
- 0.53447 3 6 cbr 210 ------- 2 0.0 4.0 1 1
d 0.534474 5 6 cbr 210 ------- 2 0.0 4.0 1 1
r 0.534724 6 4 cbr 210 ------- 2 0.0 4.0 0 0
r 0.53586 0 2 cbr 210 ------- 2 0.0 4.0 6 6
+ 0.53586 2 3 cbr 210 ------- 2 0.0 4.0 6 6
- 0.53586 2 3 cbr 210 ------- 2 0.0 4.0 6 6
+ 0.5375 0 2 cbr 210 ------- 2 0.0 4.0 10 10
- 0.5375 0 2 cbr 210 ------- 2 0.0 4.0 10 10
r 0.53797 2 3 cbr 210 ------- 2 0.0 4.0 3 3
h 0.53797 3 6 cbr 210 ------- 2 0.0 4.0 3 3
+ 0.53822 3 6 cbr 210 ------- 2 0.0 4.0 2 2
- 0.53822 3 6 cbr 210 ------- 2 0.0 4.0 2 2
d 0.538224 5 6 cbr 210 ------- 2 0.0 4.0 2 2
r 0.538474 6 4 cbr 210 ------- 2 0.0 4.0 1 1
r 0.53961 0 2 cbr 210 ------- 2 0.0 4.0 7 7
+ 0.53961 2 3 cbr 210 ------- 2 0.0 4.0 7 7
- 0.53961 2 3 cbr 210 ------- 2 0.0 4.0 7 7
+ 0.54125 0 2 cbr 210 ------- 2 0.0 4.0 11 11
- 0.54125 0 2 cbr 210 ------- 2 0.0 4.0 11 11
r 0.54172 2 3 cbr 210 ------- 2 0.0 4.0 4 4
h 0.54172 3 6 cbr 210 ------- 2 0.0 4.0 4 4
+ 0.54197 3 6 cbr 210 ------- 2 0.0 4.0 3 3
- 0.54197 3 6 cbr 210 ------- 2 0.0 4.0 3 3
d 0.541974 5 6 cbr 210 ------- 2 0.0 4.0 3 3
r 0.542224 6 4 cbr 210 ------- 2 0.0 4.0 2 2
r 0.54336 0 2 cbr 210 ------- 2 0.0 4.0 8 8
+ 0.54336 2 3 cbr 210 ------- 2 0.0 4.0 8 8
- 0.54336 2 3 cbr 210 ------- 2 0.0 4.0 8 8
+ 0.545 0 2 cbr 210 ------- 2 0.0 4.0 12 12
- 0.545 0 2 cbr 210 ------- 2 0.0 4.0 12 12
r 0.54547 2 3 cbr 210 ------- 2 0.0 4.0 5 5
h 0.54547 3 6 cbr 210 ------- 2 0.0 4.0 5 5
+ 0.54572 3 6 cbr 210 ------- 2 0.0 4.0 4 4
- 0.54572 3 6 cbr 210 ------- 2 0.0 4.0 4 4
d 0.545724 5 6 cbr 210 ------- 2 0.0 4.0 4 4
r 0.545974 6 4 cbr 210 ------- 2 0.0 4.0 3 3
r 0.54711 0 2 cbr 210 ------- 2 0.0 4.0 9 9
+ 0.54711 2 3 cbr 210 ------- 2 0.0 4.0 9 9
- 0.54711 2 3 cbr 210 ------- 2 0.0 4.0 9 9
+ 0.54875 0 2 cbr 210 ------- 2 0.0 4.0 13 13
- 0.54875 0 2 cbr 210 ------- 2 0.0 4.0 13 13
r 0.54922 2 3 cbr 210 ------- 2 0.0 4.0 6 6
h 0.54922 3 6 cbr 210 ------- 2 0.0 4.0 6 6
+ 0.54947 3 6 cbr 210 ------- 2 0.0 4.0 5 5
- 0.54947 3 6 cbr 210 ------- 2 0.0 4.0 5 5
d 0.549474 5 6 cbr 210 ------- 2 0.0 4.0 5 5
r 0.549724 6 4 cbr 210 ------- 2 0.0 4.0 4 4
r 0.55086 0 2 cbr 210 ------- 2 0.0 4.0 10 10
+ 0.55086 2 3 cbr 210 ------- 2 0.0 4.0 10 10
- 0.55086 2 3 cbr 210 ------- 2 0.0 4.0 10 10
+ 0.5525 0 2 cbr 210 ------- 2 0.0 4.0 14 14
- 0.5525 0 2 cbr 210 ------- 2 0.0 4.0 14 14
r 0.55297 2 3 cbr 210 ------- 2 0.0 4.0 7 7
h 0.55297 3 6 cbr 210 ------- 2 0.0 4.0 7 7
+ 0.55322 3 6 cbr 210 ------- 2 0.0 4.0 6 6
- 0.55322 3 6 cbr 210 ------- 2 0.0 4.0 6 6
d 0.553224 5 6 cbr 210 ------- 2 0.0 4.0 6 6
r 0.553474 6 4 cbr 210 ------- 2 0.0 4.0 5 5
r 0.55461 0 2 cbr 210 ------- 2 0.0 4.0 11 11
+ 0.55461 2 3 cbr 210 ------- 2 0.0 4.0 11 11
- 0.55461 2 3 cbr 210 ------- 2 0.0 4.0 11 11
+ 0.55625 0 2 cbr 210 ------- 2 0.0 4.0 15 15
- 0.55625 0 2 cbr 210 ------- 2 0.0 4.0 15 15
r 0.55672 2 3 cbr 210 ------- 2 0.0 4.0 8 8
h 0.55672 3 6 cbr 210 ------- 2 0.0 4.0 8 8
+ 0.55697 3 6 cbr 210 ------- 2 0.0 4.0 7 7
- 0.55697 3 6 cbr 210 ------- 2 0.0 4.0 7 7
d 0.556974 5 6 cbr 210 ------- 2 0.0 4.0 7 7
r 0.557224 6 4 cbr 210 ------- 2 0.0 4.0 6 6
r 0.55836 0 2 cbr 210 ------- 2 0.0 4.0 12 12
+ 0.55836 2 3 cbr 210 ------- 2 0.0 4.0 12 12
- 0.55836 2 3 cbr 210 ------- 2 0.0 4.0 12 12
+ 0.56 0 2 cbr 210 ------- 2 0.0 4.0 16 16
- 0.56 0 2 cbr 210 ------- 2 0.0 4.0 16 16
r 0.56047 2 3 cbr 210 ------- 2 0.0 4.0 9 9
h 0.56047 3 6 cbr 210 ------- 2 0.0 4.0 9 9
+ 0.56072 3 6 cbr 210 ------- 2 0.0 4.0 8 8
- 0.56072 3 6 cbr 210 ------- 2 0.0 4.0 8 8
d 0.560724 5 6 cbr 210 ------- 2 0.0 4.0 8 8
r 0.560974 6 4 cbr 210 ------- 2 0.0 4.0 7 7
r 0.56211 0 2 cbr 210 ------- 2 0.0 4.0 13 13
+ 0.56211 2 3 cbr 210 ------- 2 0.0 4.0 13 13
- 0.56211 2 3 cbr 210 ------- 2 0.0 4.0 13 13
+ 0.56375 0 2 cbr 210 ------- 2 0.0 4.0 17 17
- 0.56375 0 2 cbr 210 ------- 2 0.0 4.0 17 17
r 0.56422 2 3 cbr 210 ------- 2 0.0 4.0 10 10
h 0.56422 3 6 cbr 210 ------- 2 0.0 4.0 10 10
+ 0.56447 3 6 cbr 210 ------- 2 0.0 4.0 9 9
- 0.56447 3 6 cbr 210 ------- 2 0.0 4.0 9 9
d 0.564474 5 6 cbr 210 ------- 2 0.0 4.0 9 9
r 0.564724 6 4 cbr 210 ------- 2 0.0 4.0 8 8
r 0.56586 0 2 cbr 210 ------- 2 0.0 4.0 14 14
+ 0.56586 2 3 cbr 210 ------- 2 0.0 4.0 14 14
- 0.56586 2 3 cbr 210 ------- 2 0.0 4.0 14 14
+ 0.5675 0 2 cbr 210 ------- 2 0.0 4.0 18 18
- 0.5675 0 2 cbr 210 ------- 2 0.0 4.0 18 18
r 0.56797 2 3 cbr 210 ------- 2 0.0 4.0 11 11
h 0.56797 3 6 cbr 210 ------- 2 0.0 4.0 11 11
+ 0.56822 3 6 cbr 210 ------- 2 0.0 4.0 10 10
- 0.56822 3 6 cbr 210 ------- 2 0.0 4.0 10 10
d 0.568224 5 6 cbr 210 ------- 2 0.0 4.0 10 10
r 0.568474 6 4 cbr 210 ------- 2 0.0 4.0 9 9
r 0.56961 0 2 cbr 210 ------- 2 0.0 4.0 15 15
+ 0.56961 2 3 cbr 210 ------- 2 0.0 4.0 15 15
- 0.56961 2 3 cbr 210 ------- 2 0.0 4.0 15 15
+ 0.57125 0 2 cbr 210 ------- 2 0.0 4.0 19 19
- 0.57125 0 2 cbr 210 ------- 2 0.0 4.0 19 19
r 0.57172 2 3 cbr 210 ------- 2 0.0 4.0 12 12
h 0.57172 3 6 cbr 210 ------- 2 0.0 4.0 12 12
+ 0.57197 3 6 cbr 210 ------- 2 0.0 4.0 11 11
- 0.57197 3 6 cbr 210 ------- 2 0.0 4.0 11 11
d 0.571974 5 6 cbr 210 ------- 2 0.0 4.0 11 11
r 0.572224 6 4 cbr 210 ------- 2 0.0 4.0 10 10
r 0.57336 0 2 cbr 210 ------- 2 0.0 4.0 16 16
+ 0.57336 2 3 cbr 210 ------- 2 0.0 4.0 16 16
- 0.57336 2 3 cbr 210 ------- 2 0.0 4.0 16 16
+ 0.575 0 2 cbr 210 ------- 2 0.0 4.0 20 20
- 0.575 0 2 cbr 210 ------- 2 0.0 4.0 20 20
r 0.57547 2 3 cbr 210 ------- 2 0.0 4.0 13 13
h 0.57547 3 6 cbr 210 ------- 2 0.0 4.0 13 13
+ 0.57572 3 6 cbr 210 ------- 2 0.0 4.0 12 12
- 0.57572 3 6 cbr 210 ------- 2 0.0 4.0 12 12
d 0.575724 5 6 cbr 210 ------- 2 0.0 4.0 12 12
r 0.575974 6 4 cbr 210 ------- 2 0.0 4.0 11 11
r 0.57711 0 2 cbr 210 ------- 2 0.0 4.0 17 17
+ 0.57711 2 3 cbr 210 ------- 2 0.0 4.0 17 17
- 0.57711 2 3 cbr 210 ------- 2 0.0 4.0 17 17
+ 0.57875 0 2 cbr 210 ------- 2 0.0 4.0 21 21
- 0.57875 0 2 cbr 210 ------- 2 0.0 4.0 21 21
r 0.57922 2 3 cbr 210 ------- 2 0.0 4.0 14 14
h 0.57922 3 6 cbr 210 ------- 2 0.0 4.0 14 14
+ 0.57947 3 6 cbr 210 ------- 2 0.0 4.0 13 13
- 0.57947 3 6 cbr 210 ------- 2 0.0 4.0 13 13
d 0.579474 5 6 cbr 210 ------- 2 0.0 4.0 13 13
r 0.579724 6 4 cbr 210 ------- 2 0.0 4.0 12 12
r 0.58086 0 2 cbr 210 ------- 2 0.0 4.0 18 18
+ 0.58086 2 3 cbr 210 ------- 2 0.0 4.0 18 18
- 0.58086 2 3 cbr 210 ------- 2 0.0 4.0 18 18
+ 0.5825 0 2 cbr 210 ------- 2 0.0 4.0 22 22
- 0.5825 0 2 cbr 210 ------- 2 0.0 4.0 22 22
r 0.58297 2 3 cbr 210 ------- 2 0.0 4.0 15 15
h 0.58297 3 6 cbr 210 ------- 2 0.0 4.0 15 15
+ 0.58322 3 6 cbr 210 ------- 2 0.0 4.0 14 14
- 0.58322 3 6 cbr 210 ------- 2 0.0 4.0 14 14
d 0.583224 5 6 cbr 210 ------- 2 0.0 4.0 14 14
r 0.583474 6 4 cbr 210 ------- 2 0.0 4.0 13 13
r 0.58461 0 2 cbr 210 ------- 2 0.0 4.0 19 19
+ 0.58461 2 3 cbr 210 ------- 2 0.0 4.0 19 19
- 0.58461 2 3 cbr 210 ------- 2 0.0 4.0 19 19
+ 0.58625 0 2 cbr 210 ------- 2 0.0 4.0 23 23
- 0.58625 0 2 cbr 210 ------- 2 0.0 4.0 23 23
r 0.58672 2 3 cbr 210 ------- 2 0.0 4.0 16 16
h 0.58672 3 6 cbr 210 ------- 2 0.0 4.0 16 16
+ 0.58697 3 6 cbr 210 ------- 2 0.0 4.0 15 15
- 0.58697 3 6 cbr 210 ------- 2 0.0 4.0 15 15
d 0.586974 5 6 cbr 210 ------- 2 0.0 4.0 15 15
r 0.587224 6 4 cbr 210 ------- 2 0.0 4.0 14 14
r 0.58836 0 2 cbr 210 ------- 2 0.0 4.0 20 20
+ 0.58836 2 3 cbr 210 ------- 2 0.0 4.0 20 20
- 0.58836 2 3 cbr 210 ------- 2 0.0 4.0 20 20
+ 0.59 0 2 cbr 210 ------- 2 0.0 4.0 24 24
- 0.59 0 2 cbr 210 ------- 2 0.0 4.0 24 24
r 0.59047 2 3 cbr 210 ------- 2 0.0 4.0 17 17
h 0.59047 3 6 cbr 210 ------- 2 0.0 4.0 17 17
+ 0.59072 3 6 cbr 210 ------- 2 0.0 4.0 16 16
- 0.59072 3 6 cbr 210 ------- 2 0.0 4.0 16 16
d 0.590724 5 6 cbr 210 ------- 2 0.0 4.0 16 16
r 0.590974 6 4 cbr 210 ------- 2 0.0 4.0 15 15
r 0.59211 0 2 cbr 210 ------- 2 0.0 4.0 21 21
+ 0.59211 2 3 cbr 210 ------- 2 0.0 4.0 21 21
- 0.59211 2 3 cbr 210 ------- 2 0.0 4.0 21 21
+ 0.59375 0 2 cbr 210 ------- 2 0.0 4.0 25 25
- 0.59375 0 2 cbr 210 ------- 2 0.0 4.0 25 25
r 0.59422 2 3 cbr 210 ------- 2 0.0 4.0 18 18
h 0.59422 3 6 cbr 210 ------- 2 0.0 4.0 18 18
+ 0.59447 3 6 cbr 210 ------- 2 0.0 4.0 17 17
- 0.59447 3 6 cbr 210 ------- 2 0.0 4.0 17 17
d 0.594474 5 6 cbr 210 ------- 2 0.0 4.0 17 17
r 0.594724 6 4 cbr 210 ------- 2 0.0 4.0 16 16
r 0.59586 0 2 cbr 210 ------- 2 0.0 4.0 22 22
+ 0.59586 2 3 cbr 210 ------- 2 0.0 4.0 22 22
- 0.59586 2 3 cbr 210 ------- 2 0.0 4.0 22 22
+ 0.5975 0 2 cbr 210 ------- 2 0.0 4.0 26 26
- 0.5975 0 2 cbr 210 ------- 2 0.0 4.0 26 26
r 0.59797 2 3 cbr 210 ------- 2 0.0 4.0 19 19
h 0.59797 3 6 cbr 210 ------- 2 0.0 4.0 19 19
+ 0.59822 3 6 cbr 210 ------- 2 0.0 4.0 18 18
- 0.59822 3 6 cbr 210 ------- 2 0.0 4.0 18 18
d 0.598224 5 6 cbr 210 ------- 2 0.0 4.0 18 18
r 0.598474 6 4 cbr 210 ------- 2 0.0 4.0 17 17
r 0.59961 0 2 cbr 210 ------- 2 0.0 4.0 23 23
+ 0.59961 2 3 cbr 210 ------- 2 0.0 4.0 23 23
- 0.59961 2 3 cbr 210 ------- 2 0.0 4.0 23 23
+ 0.60125 0 2 cbr 210 ------- 2 0.0 4.0 27 27
- 0.60125 0 2 cbr 210 ------- 2 0.0 4.0 27 27
r 0.60172 2 3 cbr 210 ------- 2 0.0 4.0 20 20
h 0.60172 3 6 cbr 210 ------- 2 0.0 4.0 20 20
+ 0.60197 3 6 cbr 210 ------- 2 0.0 4.0 19 19
- 0.60197 3 6 cbr 210 ------- 2 0.0 4.0 19 19
d 0.601974 5 6 cbr 210 ------- 2 0.0 4.0 19 19
r 0.602224 6 4 cbr 210 ------- 2 0.0 4.0 18 18
r 0.60336 0 2 cbr 210 ------- 2 0.0 4.0 24 24
+ 0.60336 2 3 cbr 210 ------- 2 0.0 4.0 24 24
- 0.60336 2 3 cbr 210 ------- 2 0.0 4.0 24 24
+ 0.605 0 2 cbr 210 ------- 2 0.0 4.0 28 28
- 0.605 0 2 cbr 210 ------- 2 0.0 4.0 28 28
r 0.60547 2 3 cbr 210 ------- 2 0.0 4.0 21 21
h 0.60547 3 6 cbr 210 ------- 2 0.0 4.0 21 21
+ 0.60572 3 6 cbr 210 ------- 2 0.0 4.0 20 20
- 0.60572 3 6 cbr 210 ------- 2 0.0 4.0 20 20
d 0.605724 5 6 cbr 210 ------- 2 0.0 4.0 20 20
r 0.605974 6 4 cbr 210 ------- 2 0.0 4.0 19 19
r 0.60711 0 2 cbr 210 ------- 2 0.0 4.0 25 25
+ 0.60711 2 3 cbr 210 ------- 2 0.0 4.0 25 25
- 0.60711 2 3 cbr 210 ------- 2 0.0 4.0 25 25
+ 0.60875 0 2 cbr 210 ------- 2 0.0 4.0 29 29
- 0.60875 0 2 cbr 210 ------- 2 0.0 4.0 29 29
r 0.60922 2 3 cbr 210 ------- 2 0.0 4.0 22 22
h 0.60922 3 6 cbr 210 ------- 2 0.0 4.0 22 22
+ 0.60947 3 6 cbr 210 ------- 2 0.0 4.0 21 21
- 0.60947 3 6 cbr 210 ------- 2 0.0 4.0 21 21
d 0.609474 5 6 cbr 210 ------- 2 0.0 4.0 21 21
r 0.609724 6 4 cbr 210 ------- 2 0.0 4.0 20 20
r 0.61086 0 2 cbr 210 ------- 2 0.0 4.0 26 26
+ 0.61086 2 3 cbr 210 ------- 2 0.0 4.0 26 26
- 0.61086 2 3 cbr 210 ------- 2 0.0 4.0 26 26
+ 0.6125 0 2 cbr 210 ------- 2 0.0 4.0 30 30
- 0.6125 0 2 cbr 210 ------- 2 0.0 4.0 30 30
r 0.61297 2 3 cbr 210 ------- 2 0.0 4.0 23 23
h 0.61297 3 6 cbr 210 ------- 2 0.0 4.0 23 23
+ 0.61322 3 6 cbr 210 ------- 2 0.0 4.0 22 22
- 0.61322 3 6 cbr 210 ------- 2 0.0 4.0 22 22
d 0.613224 5 6 cbr 210 ------- 2 0.0 4.0 22 22
r 0.613474 6 4 cbr 210 ------- 2 0.0 4.0 21 21
r 0.61461 0 2 cbr 210 ------- 2 0.0 4.0 27 27
+ 0.61461 2 3 cbr 210 ------- 2 0.0 4.0 27 27
- 0.61461 2 3 cbr 210 ------- 2 0.0 4.0 27 27
+ 0.61625 0 2 cbr 210 ------- 2 0.0 4.0 31 31
- 0.61625 0 2 cbr 210 ------- 2 0.0 4.0 31 31
r 0.61672 2 3 cbr 210 ------- 2 0.0 4.0 24 24
h 0.61672 3 6 cbr 210 ------- 2 0.0 4.0 24 24
+ 0.61697 3 6 cbr 210 ------- 2 0.0 4.0 23 23
- 0.61697 3 6 cbr 210 ------- 2 0.0 4.0 23 23
d 0.616974 5 6 cbr 210 ------- 2 0.0 4.0 23 23
r 0.617224 6 4 cbr 210 ------- 2 0.0 4.0 22 22
r 0.61836 0 2 cbr 210 ------- 2 0.0 4.0 28 28
+ 0.61836 2 3 cbr 210 ------- 2 0.0 4.0 28 28
- 0.61836 2 3 cbr 210 ------- 2 0.0 4.0 28 28
+ 0.62 0 2 cbr 210 ------- 2 0.0 4.0 32 32
- 0.62 0 2 cbr 210 ------- 2 0.0 4.0 32 32
r 0.62047 2 3 cbr 210 ------- 2 0.0 4.0 25 25
h 0.62047 3 6 cbr 210 ------- 2 0.0 4.0 25 25
+ 0.62072 3 6 cbr 210 ------- 2 0.0 4.0 24 24
- 0.62072 3 6 cbr 210 ------- 2 0.0 4.0 24 24
d 0.620724 5 6 cbr 210 ------- 2 0.0 4.0 24 24
r 0.620974 6 4 cbr 210 ------- 2 0.0 4.0 23 23
r 0.62211 0 2 cbr 210 ------- 2 0.0 4.0 29 29
+ 0.62211 2 3 cbr 210 ------- 2 0.0 4.0 29 29
- 0.62211 2 3 cbr 210 ------- 2 0.0 4.0 29 29
+ 0.62375 0 2 cbr 210 ------- 2 0.0 4.0 33 33
- 0.62375 0 2 cbr 210 ------- 2 0.0 4.0 33 33
r 0.62422 2 3 cbr 210 ------- 2 0.0 4.0 26 26
h 0.62422 3 6 cbr 210 ------- 2 0.0 4.0 26 26
+ 0.62447 3 6 cbr 210 ------- 2 0.0 4.0 25 25
- 0.62447 3 6 cbr 210 ------- 2 0.0 4.0 25 25
d 0.624474 5 6 cbr 210 ------- 2 0.0 4.0 25 25
r 0.624724 6 4 cbr 210 ------- 2 0.0 4.0 24 24
r 0.62586 0 2 cbr 210 ------- 2 0.0 4.0 30 30
+ 0.62586 2 3 cbr 210 ------- 2 0.0 4.0 30 30
- 0.62586 2 3 cbr 210 ------- 2 0.0 4.0 30 30
+ 0.6275 0 2 cbr 210 ------- 2 0.0 4.0 34 34
- 0.6275 0 2 cbr 210 ------- 2 0.0 4.0 34 34
r 0.62797 2 3 cbr 210 ------- 2 0.0 4.0 27 27
h 0.62797 3 6 cbr 210 ------- 2 0.0 4.0 27 27
+ 0.62822 3 6 cbr 210 ------- 2 0.0 4.0 26 26
- 0.62822 3 6 cbr 210 ------- 2 0.0 4.0 26 26
d 0.628224 5 6 cbr 210 ------- 2 0.0 4.0 26 26
r 0.628474 6 4 cbr 210 ------- 2 0.0 4.0 25 25
r 0.62961 0 2 cbr 210 ------- 2 0.0 4.0 31 31
+ 0.62961 2 3 cbr 210 ------- 2 0.0 4.0 31 31
- 0.62961 2 3 cbr 210 ------- 2 0.0 4.0 31 31
+ 0.63125 0 2 cbr 210 ------- 2 0.0 4.0 35 35
- 0.63125 0 2 cbr 210 ------- 2 0.0 4.0 35 35
r 0.63172 2 3 cbr 210 ------- 2 0.0 4.0 28 28
h 0.63172 3 6 cbr 210 ------- 2 0.0 4.0 28 28
+ 0.63197 3 6 cbr 210 ------- 2 0.0 4.0 27 27
- 0.63197 3 6 cbr 210 ------- 2 0.0 4.0 27 27
d 0.631974 5 6 cbr 210 ------- 2 0.0 4.0 27 27
r 0.632224 6 4 cbr 210 ------- 2 0.0 4.0 26 26
r 0.63336 0 2 cbr 210 ------- 2 0.0 4.0 32 32
+ 0.63336 2 3 cbr 210 ------- 2 0.0 4.0 32 32
- 0.63336 2 3 cbr 210 ------- 2 0.0 4.0 32 32
+ 0.635 0 2 cbr 210 ------- 2 0.0 4.0 36 36
- 0.635 0 2 cbr 210 ------- 2 0.0 4.0 36 36
r 0.63547 2 3 cbr 210 ------- 2 0.0 4.0 29 29
h 0.63547 3 6 cbr 210 ------- 2 0.0 4.0 29 29
+ 0.63572 3 6 cbr 210 ------- 2 0.0 4.0 28 28
- 0.63572 3 6 cbr 210 ------- 2 0.0 4.0 28 28
d 0.635724 5 6 cbr 210 ------- 2 0.0 4.0 28 28
r 0.635974 6 4 cbr 210 ------- 2 0.0 4.0 27 27
r 0.63711 0 2 cbr 210 ------- 2 0.0 4.0 33 33
+ 0.63711 2 3 cbr 210 ------- 2 0.0 4.0 33 33
- 0.63711 2 3 cbr 210 ------- 2 0.0 4.0 33 33
+ 0.63875 0 2 cbr 210 ------- 2 0.0 4.0 37 37
- 0.63875 0 2 cbr 210 ------- 2 0.0 4.0 37 37
r 0.63922 2 3 cbr 210 ------- 2 0.0 4.0 30 30
h 0.63922 3 6 cbr 210 ------- 2 0.0 4.0 30 30
+ 0.63947 3 6 cbr 210 ------- 2 0.0 4.0 29 29
- 0.63947 3 6 cbr 210 ------- 2 0.0 4.0 29 29
d 0.639474 5 6 cbr 210 ------- 2 0.0 4.0 29 29
r 0.639724 6 4 cbr 210 ------- 2 0.0 4.0 28 28
r 0.64086 0 2 cbr 210 ------- 2 0.0 4.0 34 34
+ 0.64086 2 3 cbr 210 ------- 2 0.0 4.0 34 34
- 0.64086 2 3 cbr 210 ------- 2 0.0 4.0 34 34
+ 0.6425 0 2 cbr 210 ------- 2 0.0 4.0 38 38
- 0.6425 0 2 cbr 210 ------- 2 0.0 4.0 38 38
r 0.64297 2 3 cbr 210 ------- 2 0.0 4.0 31 31
h 0.64297 3 6 cbr 210 ------- 2 0.0 4.0 31 31
+ 0.64322 3 6 cbr 210 ------- 2 0.0 4.0 30 30
- 0.64322 3 6 cbr 210 ------- 2 0.0 4.0 30 30
d 0.643224 5 6 cbr 210 ------- 2 0.0 4.0 30 30
r 0.643474 6 4 cbr 210 ------- 2 0.0 4.0 29 29
r 0.64461 0 2 cbr 210 ------- 2 0.0 4.0 35 35
+ 0.64461 2 3 cbr 210 ------- 2 0.0 4.0 35 35
- 0.64461 2 3 cbr 210 ------- 2 0.0 4.0 35 35
+ 0.64625 0 2 cbr 210 ------- 2 0.0 4.0 39 39
- 0.64625 0 2 cbr 210 ------- 2 0.0 4.0 39 39
r 0.64672 2 3 cbr 210 ------- 2 0.0 4.0 32 32
h 0.64672 3 6 cbr 210 ------- 2 0.0 4.0 32 32
+ 0.64697 3 6 cbr 210 ------- 2 0.0 4.0 31 31
- 0.64697 3 6 cbr 210 ------- 2 0.0 4.0 31 31
d 0.646974 5 6 cbr 210 ------- 2 0.0 4.0 31 31
r 0.647224 6 4 cbr 210 ------- 2 0.0 4.0 30 30
r 0.64836 0 2 cbr 210 ------- 2 0.0 4.0 36 36
+ 0.64836 2 3 cbr 210 ------- 2 0.0 4.0 36 36
- 0.64836 2 3 cbr 210 ------- 2 0.0 4.0 36 36
+ 0.65 0 2 cbr 210 ------- 2 0.0 4.0 40 40
- 0.65 0 2 cbr 210 ------- 2 0.0 4.0 40 40
r 0.65047 2 3 cbr 210 ------- 2 0.0 4.0 33 33
h 0.65047 3 6 cbr 210 ------- 2 0.0 4.0 33 33
+ 0.65072 3 6 cbr 210 ------- 2 0.0 4.0 32 32
- 0.65072 3 6 cbr 210 ------- 2 0.0 4.0 32 32
d 0.650724 5 6 cbr 210 ------- 2 0.0 4.0 32 32
r 0.650974 6 4 cbr 210 ------- 2 0.0 4.0 31 31
r 0.65211 0 2 cbr 210 ------- 2 0.0 4.0 37 37
+ 0.65211 2 3 cbr 210 ------- 2 0.0 4.0 37 37
- 0.65211 2 3 cbr 210 ------- 2 0.0 4.0 37 37
+ 0.65375 0 2 cbr 210 ------- 2 0.0 4.0 41 41
- 0.65375 0 2 cbr 210 ------- 2 0.0 4.0 41 41
r 0.65422 2 3 cbr 210 ------- 2 0.0 4.0 34 34
h 0.65422 3 6 cbr 210 ------- 2 0.0 4.0 34 34
+ 0.65447 3 6 cbr 210 ------- 2 0.0 4.0 33 33
- 0.65447 3 6 cbr 210 ------- 2 0.0 4.0 33 33
d 0.654474 5 6 cbr 210 ------- 2 0.0 4.0 33 33
r 0.654724 6 4 cbr 210 ------- 2 0.0 4.0 32 32
r 0.65586 0 2 cbr 210 ------- 2 0.0 4.0 38 38
+ 0.65586 2 3 cbr 210 ------- 2 0.0 4.0 38 38
- 0.65586 2 3 cbr 210 ------- 2 0.0 4.0 38 38
+ 0.6575 0 2 cbr 210 ------- 2 0.0 4.0 42 42
- 0.6575 0 2 cbr 210 ------- 2 0.0 4.0 42 42
r 0.65797 2 3 cbr 210 ------- 2 0.0 4.0 35 35
h 0.65797 3 6 cbr 210 ------- 2 0.0 4.0 35 35
+ 0.65822 3 6 cbr 210 ------- 2 0.0 4.0 34 34
- 0.65822 3 6 cbr 210 ------- 2 0.0 4.0 34 34
d 0.658224 5 6 cbr 210 ------- 2 0.0 4.0 34 34
r 0.658474 6 4 cbr 210 ------- 2 0.0 4.0 33 33
r 0.65961 0 2 cbr 210 ------- 2 0.0 4.0 39 39
+ 0.65961 2 3 cbr 210 ------- 2 0.0 4.0 39 39
- 0.65961 2 3 cbr 210 ------- 2 0.0 4.0 39 39
+ 0.66125 0 2 cbr 210 ------- 2 0.0 4.0 43 43
- 0.66125 0 2 cbr 210 ------- 2 0.0 4.0 43 43
r 0.66172 2 3 cbr 210 ------- 2 0.0 4.0 36 36
h 0.66172 3 6 cbr 210 ------- 2 0.0 4.0 36 36
+ 0.66197 3 6 cbr 210 ------- 2 0.0 4.0 35 35
- 0.66197 3 6 cbr 210 ------- 2 0.0 4.0 35 35
d 0.661974 5 6 cbr 210 ------- 2 0.0 4.0 35 35
r 0.662224 6 4 cbr 210 ------- 2 0.0 4.0 34 34
r 0.66336 0 2 cbr 210 ------- 2 0.0 4.0 40 40
+ 0.66336 2 3 cbr 210 ------- 2 0.0 4.0 40 40
- 0.66336 2 3 cbr 210 ------- 2 0.0 4.0 40 40
+ 0.665 0 2 cbr 210 ------- 2 0.0 4.0 44 44
- 0.665 0 2 cbr 210 ------- 2 0.0 4.0 44 44
r 0.66547 2 3 cbr 210 ------- 2 0.0 4.0 37 37
h 0.66547 3 6 cbr 210 ------- 2 0.0 4.0 37 37
+ 0.66572 3 6 cbr 210 ------- 2 0.0 4.0 36 36
- 0.66572 3 6 cbr 210 ------- 2 0.0 4.0 36 36
d 0.665724 5 6 cbr 210 ------- 2 0.0 4.0 36 36
r 0.665974 6 4 cbr 210 ------- 2 0.0 4.0 35 35
r 0.66711 0 2 cbr 210 ------- 2 0.0 4.0 41 41
+ 0.66711 2 3 cbr 210 ------- 2 0.0 4.0 41 41
- 0.66711 2 3 cbr 210 ------- 2 0.0 4.0 41 41
+ 0.66875 0 2 cbr 210 ------- 2 0.0 4.0 45 45
- 0.66875 0 2 cbr 210 ------- 2 0.0 4.0 45 45
r 0.66922 2 3 cbr 210 ------- 2 0.0 4.0 38 38
h 0.66922 3 6 cbr 210 ------- 2 0.0 4.0 38 38
+ 0.66947 3 6 cbr 210 ------- 2 0.0 4.0 37 37
- 0.66947 3 6 cbr 210 ------- 2 0.0 4.0 37 37
d 0.669474 5 6 cbr 210 ------- 2 0.0 4.0 37 37
r 0.669724 6 4 cbr 210 ------- 2 0.0 4.0 36 36
r 0.67086 0 2 cbr 210 ------- 2 0.0 4.0 42 42
+ 0.67086 2 3 cbr 210 ------- 2 0.0 4.0 42 42
- 0.67086 2 3 cbr 210 ------- 2 0.0 4.0 42 42
+ 0.6725 0 2 cbr 210 ------- 2 0.0 4.0 46 46
- 0.6725 0 2 cbr 210 ------- 2 0.0 4.0 46 46
r 0.67297 2 3 cbr 210 ------- 2 0.0 4.0 39 39
h 0.67297 3 6 cbr 210 ------- 2 0.0 4.0 39 39
+ 0.67322 3 6 cbr 210 ------- 2 0.0 4.0 38 38
- 0.67322 3 6 cbr 210 ------- 2 0.0 4.0 38 38
d 0.673224 5 6 cbr 210 ------- 2 0.0 4.0 38 38
r 0.673474 6 4 cbr 210 ------- 2 0.0 4.0 37 37
r 0.67461 0 2 cbr 210 ------- 2 0.0 4.0 43 43
+ 0.67461 2 3 cbr 210 ------- 2 0.0 4.0 43 43
- 0.67461 2 3 cbr 210 ------- 2 0.0 4.0 43 43
+ 0.67625 0 2 cbr 210 ------- 2 0.0 4.0 47 47
- 0.67625 0 2 cbr 210 ------- 2 0.0 4.0 47 47
r 0.67672 2 3 cbr 210 ------- 2 0.0 4.0 40 40
h 0.67672 3 6 cbr 210 ------- 2 0.0 4.0 40 40
+ 0.67697 3 6 cbr 210 ------- 2 0.0 4.0 39 39
- 0.67697 3 6 cbr 210 ------- 2 0.0 4.0 39 39
d 0.676974 5 6 cbr 210 ------- 2 0.0 4.0 39 39
r 0.677224 6 4 cbr 210 ------- 2 0.0 4.0 38 38
r 0.67836 0 2 cbr 210 ------- 2 0.0 4.0 44 44
+ 0.67836 2 3 cbr 210 ------- 2 0.0 4.0 44 44
- 0.67836 2 3 cbr 210 ------- 2 0.0 4.0 44 44
+ 0.68 0 2 cbr 210 ------- 2 0.0 4.0 48 48
- 0.68 0 2 cbr 210 ------- 2 0.0 4.0 48 48
r 0.68047 2 3 cbr 210 ------- 2 0.0 4.0 41 41
h 0.68047 3 6 cbr 210 ------- 2 0.0 4.0 41 41
+ 0.68072 3 6 cbr 210 ------- 2 0.0 4.0 40 40
- 0.68072 3 6 cbr 210 ------- 2 0.0 4.0 40 40
d 0.680724 5 6 cbr 210 ------- 2 0.0 4.0 40 40
r 0.680974 6 4 cbr 210 ------- 2 0.0 4.0 39 39
r 0.68211 0 2 cbr 210 ------- 2 0.0 4.0 45 45
+ 0.68211 2 3 cbr 210 ------- 2 0.0 4.0 45 45
- 0.68211 2 3 cbr 210 ------- 2 0.0 4.0 45 45
+ 0.68375 0 2 cbr 210 ------- 2 0.0 4.0 49 49
- 0.68375 0 2 cbr 210 ------- 2 0.0 4.0 49 49
r 0.68422 2 3 cbr 210 ------- 2 0.0 4.0 42 42
h 0.68422 3 6 cbr 210 ------- 2 0.0 4.0 42 42
+ 0.68447 3 6 cbr 210 ------- 2 0.0 4.0 41 41
- 0.68447 3 6 cbr 210 ------- 2 0.0 4.0 41 41
d 0.684474 5 6 cbr 210 ------- 2 0.0 4.0 41 41
r 0.684724 6 4 cbr 210 ------- 2 0.0 4.0 40 40
r 0.68586 0 2 cbr 210 ------- 2 0.0 4.0 46 46
+ 0.68586 2 3 cbr 210 ------- 2 0.0 4.0 46 46
- 0.68586 2 3 cbr 210 ------- 2 0.0 4.0 46 46
+ 0.6875 0 2 cbr 210 ------- 2 0.0 4.0 50 50
- 0.6875 0 2 cbr 210 ------- 2 0.0 4.0 50 50
r 0.68797 2 3 cbr 210 ------- 2 0.0 4.0 43 43
h 0.68797 3 6 cbr 210 ------- 2 0.0 4.0 43 43
+ 0.68822 3 6 cbr 210 ------- 2 0.0 4.0 42 42
- 0.68822 3 6 cbr 210 ------- 2 0.0 4.0 42 42
d 0.688224 5 6 cbr 210 ------- 2 0.0 4.0 42 42
r 0.688474 6 4 cbr 210 ------- 2 0.0 4.0 41 41
r 0.68961 0 2 cbr 210 ------- 2 0.0 4.0 47 47
+ 0.68961 2 3 cbr 210 ------- 2 0.0 4.0 47 47
- 0.68961 2 3 cbr 210 ------- 2 0.0 4.0 47 47
+ 0.69125 0 2 cbr 210 ------- 2 0.0 4.0 51 51
- 0.69125 0 2 cbr 210 ------- 2 0.0 4.0 51 51
r 0.69172 2 3 cbr 210 ------- 2 0.0 4.0 44 44
h 0.69172 3 6 cbr 210 ------- 2 0.0 4.0 44 44
+ 0.69197 3 6 cbr 210 ------- 2 0.0 4.0 43 43
- 0.69197 3 6 cbr 210 ------- 2 0.0 4.0 43 43
d 0.691974 5 6 cbr 210 ------- 2 0.0 4.0 43 43
r 0.692224 6 4 cbr 210 ------- 2 0.0 4.0 42 42
r 0.69336 0 2 cbr 210 ------- 2 0.0 4.0 48 48
+ 0.69336 2 3 cbr 210 ------- 2 0.0 4.0 48 48
- 0.69336 2 3 cbr 210 ------- 2 0.0 4.0 48 48
+ 0.695 0 2 cbr 210 ------- 2 0.0 4.0 52 52
- 0.695 0 2 cbr 210 ------- 2 0.0 4.0 52 52
r 0.69547 2 3 cbr 210 ------- 2 0.0 4.0 45 45
h 0.69547 3 6 cbr 210 ------- 2 0.0 4.0 45 45
+ 0.69572 3 6 cbr 210 ------- 2 0.0 4.0 44 44
- 0.69572 3 6 cbr 210 ------- 2 0.0 4.0 44 44
d 0.695724 5 6 cbr 210 ------- 2 0.0 4.0 44 44
r 0.695974 6 4 cbr 210 ------- 2 0.0 4.0 43 43
r 0.69711 0 2 cbr 210 ------- 2 0.0 4.0 49 49
+ 0.69711 2 3 cbr 210 ------- 2 0.0 4.0 49 49
- 0.69711 2 3 cbr 210 ------- 2 0.0 4.0 49 49
+ 0.69875 0 2 cbr 210 ------- 2 0.0 4.0 53 53
- 0.69875 0 2 cbr 210 ------- 2 0.0 4.0 53 53
r 0.69922 2 3 cbr 210 ------- 2 0.0 4.0 46 46
h 0.69922 3 6 cbr 210 ------- 2 0.0 4.0 46 46
+ 0.69947 3 6 cbr 210 ------- 2 0.0 4.0 45 45
- 0.69947 3 6 cbr 210 ------- 2 0.0 4.0 45 45
d 0.699474 5 6 cbr 210 ------- 2 0.0 4.0 45 45
r 0.699724 6 4 cbr 210 ------- 2 0.0 4.0 44 44
r 0.70086 0 2 cbr 210 ------- 2 0.0 4.0 50 50
+ 0.70086 2 3 cbr 210 ------- 2 0.0 4.0 50 50
- 0.70086 2 3 cbr 210 ------- 2 0.0 4.0 50 50
+ 0.7025 0 2 cbr 210 ------- 2 0.0 4.0 54 54
- 0.7025 0 2 cbr 210 ------- 2 0.0 4.0 54 54
r 0.70297 2 3 cbr 210 ------- 2 0.0 4.0 47 47
h 0.70297 3 6 cbr 210 ------- 2 0.0 4.0 47 47
+ 0.70322 3 6 cbr 210 ------- 2 0.0 4.0 46 46
- 0.70322 3 6 cbr 210 ------- 2 0.0 4.0 46 46
d 0.703224 5 6 cbr 210 ------- 2 0.0 4.0 46 46
r 0.703474 6 4 cbr 210 ------- 2 0.0 4.0 45 45
r 0.70461 0 2 cbr 210 ------- 2 0.0 4.0 51 51
+ 0.70461 2 3 cbr 210 ------- 2 0.0 4.0 51 51
- 0.70461 2 3 cbr 210 ------- 2 0.0 4.0 51 51
+ 0.70625 0 2 cbr 210 ------- 2 0.0 4.0 55 55
- 0.70625 0 2 cbr 210 ------- 2 0.0 4.0 55 55
r 0.70672 2 3 cbr 210 ------- 2 0.0 4.0 48 48
h 0.70672 3 6 cbr 210 ------- 2 0.0 4.0 48 48
+ 0.70697 3 6 cbr 210 ------- 2 0.0 4.0 47 47
- 0.70697 3 6 cbr 210 ------- 2 0.0 4.0 47 47
d 0.706974 5 6 cbr 210 ------- 2 0.0 4.0 47 47
r 0.707224 6 4 cbr 210 ------- 2 0.0 4.0 46 46
r 0.70836 0 2 cbr 210 ------- 2 0.0 4.0 52 52
+ 0.70836 2 3 cbr 210 ------- 2 0.0 4.0 52 52
- 0.70836 2 3 cbr 210 ------- 2 0.0 4.0 52 52
+ 0.71 0 2 cbr 210 ------- 2 0.0 4.0 56 56
- 0.71 0 2 cbr 210 ------- 2 0.0 4.0 56 56
r 0.71047 2 3 cbr 210 ------- 2 0.0 4.0 49 49
h 0.71047 3 6 cbr 210 ------- 2 0.0 4.0 49 49
+ 0.71072 3 6 cbr 210 ------- 2 0.0 4.0 48 48
- 0.71072 3 6 cbr 210 ------- 2 0.0 4.0 48 48
d 0.710724 5 6 cbr 210 ------- 2 0.0 4.0 48 48
r 0.710974 6 4 cbr 210 ------- 2 0.0 4.0 47 47
r 0.71211 0 2 cbr 210 ------- 2 0.0 4.0 53 53
+ 0.71211 2 3 cbr 210 ------- 2 0.0 4.0 53 53
- 0.71211 2 3 cbr 210 ------- 2 0.0 4.0 53 53
+ 0.71375 0 2 cbr 210 ------- 2 0.0 4.0 57 57
- 0.71375 0 2 cbr 210 ------- 2 0.0 4.0 57 57
r 0.71422 2 3 cbr 210 ------- 2 0.0 4.0 50 50
h 0.71422 3 6 cbr 210 ------- 2 0.0 4.0 50 50
+ 0.71447 3 6 cbr 210 ------- 2 0.0 4.0 49 49
- 0.71447 3 6 cbr 210 ------- 2 0.0 4.0 49 49
d 0.714474 5 6 cbr 210 ------- 2 0.0 4.0 49 49
r 0.714724 6 4 cbr 210 ------- 2 0.0 4.0 48 48
r 0.71586 0 2 cbr 210 ------- 2 0.0 4.0 54 54
+ 0.71586 2 3 cbr 210 ------- 2 0.0 4.0 54 54
- 0.71586 2 3 cbr 210 ------- 2 0.0 4.0 54 54
+ 0.7175 0 2 cbr 210 ------- 2 0.0 4.0 58 58
- 0.7175 0 2 cbr 210 ------- 2 0.0 4.0 58 58
r 0.71797 2 3 cbr 210 ------- 2 0.0 4.0 51 51
h 0.71797 3 6 cbr 210 ------- 2 0.0 4.0 51 51
+ 0.71822 3 6 cbr 210 ------- 2 0.0 4.0 50 50
- 0.71822 3 6 cbr 210 ------- 2 0.0 4.0 50 50
d 0.718224 5 6 cbr 210 ------- 2 0.0 4.0 50 50
r 0.718474 6 4 cbr 210 ------- 2 0.0 4.0 49 49
r 0.71961 0 2 cbr 210 ------- 2 0.0 4.0 55 55
+ 0.71961 2 3 cbr 210 ------- 2 0.0 4.0 55 55
- 0.71961 2 3 cbr 210 ------- 2 0.0 4.0 55 55
+ 0.72125 0 2 cbr 210 ------- 2 0.0 4.0 59 59
- 0.72125 0 2 cbr 210 ------- 2 0.0 4.0 59 59
r 0.72172 2 3 cbr 210 ------- 2 0.0 4.0 52 52
h 0.72172 3 6 cbr 210 ------- 2 0.0 4.0 52 52
+ 0.72197 3 6 cbr 210 ------- 2 0.0 4.0 51 51
- 0.72197 3 6 cbr 210 ------- 2 0.0 4.0 51 51
d 0.721974 5 6 cbr 210 ------- 2 0.0 4.0 51 51
r 0.722224 6 4 cbr 210 ------- 2 0.0 4.0 50 50
r 0.72336 0 2 cbr 210 ------- 2 0.0 4.0 56 56
+ 0.72336 2 3 cbr 210 ------- 2 0.0 4.0 56 56
- 0.72336 2 3 cbr 210 ------- 2 0.0 4.0 56 56
+ 0.725 0 2 cbr 210 ------- 2 0.0 4.0 60 60
- 0.725 0 2 cbr 210 ------- 2 0.0 4.0 60 60
r 0.72547 2 3 cbr 210 ------- 2 0.0 4.0 53 53
h 0.72547 3 6 cbr 210 ------- 2 0.0 4.0 53 53
+ 0.72572 3 6 cbr 210 ------- 2 0.0 4.0 52 52
- 0.72572 3 6 cbr 210 ------- 2 0.0 4.0 52 52
d 0.725724 5 6 cbr 210 ------- 2 0.0 4.0 52 52
r 0.725974 6 4 cbr 210 ------- 2 0.0 4.0 51 51
r 0.72711 0 2 cbr 210 ------- 2 0.0 4.0 57 57
+ 0.72711 2 3 cbr 210 ------- 2 0.0 4.0 57 57
- 0.72711 2 3 cbr 210 ------- 2 0.0 4.0 57 57
+ 0.72875 0 2 cbr 210 ------- 2 0.0 4.0 61 61
- 0.72875 0 2 cbr 210 ------- 2 0.0 4.0 61 61
r 0.72922 2 3 cbr 210 ------- 2 0.0 4.0 54 54
h 0.72922 3 6 cbr 210 ------- 2 0.0 4.0 54 54
+ 0.72947 3 6 cbr 210 ------- 2 0.0 4.0 53 53
- 0.72947 3 6 cbr 210 ------- 2 0.0 4.0 53 53
d 0.729474 5 6 cbr 210 ------- 2 0.0 4.0 53 53
r 0.729724 6 4 cbr 210 ------- 2 0.0 4.0 52 52
r 0.73086 0 2 cbr 210 ------- 2 0.0 4.0 58 58
+ 0.73086 2 3 cbr 210 ------- 2 0.0 4.0 58 58
- 0.73086 2 3 cbr 210 ------- 2 0.0 4.0 58 58
+ 0.7325 0 2 cbr 210 ------- 2 0.0 4.0 62 62
- 0.7325 0 2 cbr 210 ------- 2 0.0 4.0 62 62
r 0.73297 2 3 cbr 210 ------- 2 0.0 4.0 55 55
h 0.73297 3 6 cbr 210 ------- 2 0.0 4.0 55 55
+ 0.73322 3 6 cbr 210 ------- 2 0.0 4.0 54 54
- 0.73322 3 6 cbr 210 ------- 2 0.0 4.0 54 54
d 0.733224 5 6 cbr 210 ------- 2 0.0 4.0 54 54
r 0.733474 6 4 cbr 210 ------- 2 0.0 4.0 53 53
r 0.73461 0 2 cbr 210 ------- 2 0.0 4.0 59 59
+ 0.73461 2 3 cbr 210 ------- 2 0.0 4.0 59 59
- 0.73461 2 3 cbr 210 ------- 2 0.0 4.0 59 59
+ 0.73625 0 2 cbr 210 ------- 2 0.0 4.0 63 63
- 0.73625 0 2 cbr 210 ------- 2 0.0 4.0 63 63
r 0.73672 2 3 cbr 210 ------- 2 0.0 4.0 56 56
h 0.73672 3 6 cbr 210 ------- 2 0.0 4.0 56 56
+ 0.73697 3 6 cbr 210 ------- 2 0.0 4.0 55 55
- 0.73697 3 6 cbr 210 ------- 2 0.0 4.0 55 55
d 0.736974 5 6 cbr 210 ------- 2 0.0 4.0 55 55
r 0.737224 6 4 cbr 210 ------- 2 0.0 4.0 54 54
r 0.73836 0 2 cbr 210 ------- 2 0.0 4.0 60 60
+ 0.73836 2 3 cbr 210 ------- 2 0.0 4.0 60 60
- 0.73836 2 3 cbr 210 ------- 2 0.0 4.0 60 60
+ 0.74 0 2 cbr 210 ------- 2 0.0 4.0 64 64
- 0.74 0 2 cbr 210 ------- 2 0.0 4.0 64 64
r 0.74047 2 3 cbr 210 ------- 2 0.0 4.0 57 57
h 0.74047 3 6 cbr 210 ------- 2 0.0 4.0 57 57
+ 0.74072 3 6 cbr 210 ------- 2 0.0 4.0 56 56
- 0.74072 3 6 cbr 210 ------- 2 0.0 4.0 56 56
d 0.740724 5 6 cbr 210 ------- 2 0.0 4.0 56 56
r 0.740974 6 4 cbr 210 ------- 2 0.0 4.0 55 55
r 0.74211 0 2 cbr 210 ------- 2 0.0 4.0 61 61